<?xml version="1.0"?>
<VTKFile type="UnstructuredGrid"  version="0.1"  >
<UnstructuredGrid>
<Piece  NumberOfPoints="4500" NumberOfCells="8515">
<Points>
<DataArray  type="Float64"  NumberOfComponents="3"  format="ascii">-10 0 0  -1 0 0  0.988125 0 0  1 0.9500000000000003 0  1.011875 0 0  10 0 0  10 1 0  -10 1 0  -9.802309776351239 0 0  -9.604619552702477 0 0  -9.406929329053716 0 0  -9.209239105404954 0 0  -9.011548881756195 0 0  -8.813858658107433 0 0  -8.616168434458672 0 0  -8.41847821080991 0 0  -8.220787987161149 0 0  -8.023097763512387 0 0  -7.825407539863626 0 0  -7.627717316214865 0 0  -7.430027092566105 0 0  -7.232336868917344 0 0  -7.034646645268582 0 0  -6.836956421619821 0 0  -6.639266197971059 0 0  -6.441575974322298 0 0  -6.243885750673537 0 0  -6.046195527024776 0 0  -5.848505303376014 0 0  -5.650815079727253 0 0  -5.453124856077972 0 0  -5.255434632427317 0 0  -5.057744408776604 0 0  -4.860054185125891 0 0  -4.662363961475178 0 0  -4.464673737824465 0 0  -4.266983514173752 0 0  -4.069293290523039 0 0  -3.871603066872327 0 0  -3.673912843221613 0 0  -3.476222619570901 0 0  -3.278532395920189 0 0  -3.080842172269479 0 0  -2.884404220121649 0 0  -2.695777541322582 0 0  -2.51555880031321 0 0  -2.343347743964339 0 0  -2.178761800751354 0 0  -2.021435288943885 0 0  -1.871018404594906 0 0  -1.727176678894381 0 0  -1.589590126854418 0 0  -1.457952389939075 0 0  -1.331970370472982 0 0  -1.212113087037066 0 0  -1.117955460140685 0 0  -1.05078205711736 0 0  -0.9502968750001128 0 0  -0.9005937500002127 0 0  -0.8508906250003081 0 0  -0.8011875000003472 0 0  -0.7514843750004557 0 0  -0.7017812500005642 0 0  -0.6520781250006034 0 0  -0.6023750000007855 0 0  -0.5526718750008246 0 0  -0.5029687500009548 0 0  -0.4532656250011109 0 0  -0.4035625000012106 0 0  -0.3538593750013062 0 0  -0.3041562500014059 0 0  -0.2544531250015187 0 0  -0.2047500000016315 0 0  -0.1550468750017315 0 0  -0.1053437500018273 0 0  -0.05564062500192735 0 0  -0.005937500002040408 0 0  0.04376562499804648 0 0  0.09346874999806398 0 0  0.1431718749982895 0 0  0.192874999998307 0 0  0.2425781249984373 0 0  0.2922812499985674 0 0  0.3419843749985849 0 0  0.3916874999988105 0 0  0.441390624998828 0 0  0.4910937499989583 0 0  0.5407968749990886 0 0  0.5904999999991061 0 0  0.6402031249993312 0 0  0.6899062499993489 0 0  0.7396093749994792 0 0  0.7893124999996093 0 0  0.8390156249996268 0 0  0.8887187499998523 0 0  0.9384218749998701 0 0  0.9887291682429877 0.04833345943901594 0  0.9893055180968843 0.09444144775073587 0  0.9898553302871406 0.1384264229712453 0  0.9903798267168878 0.1803861373510272 0  0.990880173063487 0.2204138450789569 0  0.9913574813903865 0.2585985112309206 0  0.9918128123045264 0.295024984362114 0  0.992247177758389 0.3297742206711178 0  0.9926615431677073 0.3629234534165827 0  0.9930568294557705 0.3945463564616314 0  0.9934339150450541 0.4247132036043257 0  0.993793637958961 0.4534910367168788 0  0.9941367976828682 0.4809438146294586 0  0.9944641568562967 0.507132548503742 0  0.9947764429516873 0.5321154361349845 0  0.9950743501061448 0.5559480084915756 0  0.9953585402825843 0.5786832226067424 0  0.9956296451162004 0.6003716092960359 0  0.9958882670807506 0.6210613664600533 0  0.9961349810071651 0.6407984805732082 0  0.9963703351791185 0.6596268143294816 0  0.9965948526003295 0.6775882080263651 0  0.9968090322257982 0.6947225780638561 0  0.9970133501238041 0.7110680099043299 0  0.9972082603780119 0.726660830240957 0  0.9973941961063174 0.7415356885053883 0  0.9975715705311384 0.7557256424910759 0  0.997740777887994 0.7692622310395174 0  0.9979021941787155 0.7821755342972373 0  0.9980561781880443 0.7944942550435422 0  0.9982030720885938 0.8062457670875097 0  0.9983432023720592 0.8174561897647348 0  0.9984768804292244 0.8281504343379559 0  0.9986044033825379 0.8383522706030268 0  0.9987260546298081 0.84808437038465 0  0.9988421045211879 0.8573683616950341 0  0.9989528109862031 0.8662248788962521 0  0.9990584200434073 0.8746736034725816 0  0.9991591663955958 0.8827333116476621 0  0.9992552739613997 0.8904219169119738 0  0.9993448622661906 0.8975889812952476 0  0.9994124476406415 0.9029958112513186 0  0.9994712028765772 0.9076962301261747 0  0.9995299581125128 0.912396649001025 0  0.9995887133484486 0.9170970678758876 0  0.9996474685843845 0.9217974867507559 0  0.9997062238203204 0.9264979056256336 0  0.9997649790562564 0.9311983245005114 0  0.9998237342921924 0.935898743375389 0  0.9998824895281283 0.9405991622502669 0  0.9999412447640642 0.9452995811251365 0  1.000058755235936 0.9452995811251388 0  1.000117510471872 0.9405991622502772 0  1.000176265707807 0.9358987433754157 0  1.000235020943743 0.9311983245005655 0  1.000293776179679 0.9264979056257172 0  1.000352531415614 0.9217974867508687 0  1.00041128665155 0.9170970678760109 0  1.000470041887486 0.9123966490011486 0  1.000528797123421 0.9076962301262864 0  1.000587552359357 0.9029958112514297 0  1.000655137733808 0.8975889812954035 0  1.000744726038598 0.8904219169121675 0  1.000840833604401 0.8827333116478824 0  1.00094157995659 0.8746736034728307 0  1.001047189013793 0.8662248788965325 0  1.001157895478808 0.857368361695347 0  1.001273945370188 0.8480843703849877 0  1.001395596617458 0.8383522706033913 0  1.001523119570771 0.8281504343383556 0  1.001656797627935 0.8174561897651961 0  1.001796927911399 0.8062457670880456 0  1.001943821811948 0.7944942550441584 0  1.002097805821276 0.7821755342979364 0  1.002259222111996 0.7692622310402948 0  1.002428429468851 0.7557256424919233 0  1.002605803893671 0.7415356885063085 0  1.002791739621976 0.7266608302419554 0  1.002986649876182 0.7110680099054125 0  1.003190967774187 0.6947225780650272 0  1.003405147399655 0.6775882080276314 0  1.003629664820864 0.65962681433086 0  1.003865018992816 0.6407984805747046 0  1.004111732919229 0.6210613664616683 0  1.004370354883778 0.6003716092977922 0  1.004641459717391 0.578683222608684 0  1.004925649893829 0.5559480084937027 0  1.005223557048284 0.5321154361372686 0  1.005535843143673 0.507132548506202 0  1.005863202317099 0.4809438146321191 0  1.006206362041006 0.4534910367195084 0  1.006566084954915 0.4247132036068334 0  1.0069431705442 0.3945463564640246 0  1.007338456832265 0.3629234534188253 0  1.007752822241585 0.3297742206731956 0  1.00818718769545 0.2950249843640083 0  1.008642518609592 0.2585985112326038 0  1.009119826936495 0.2204138450804143 0  1.009620173283097 0.1803861373522269 0  1.010144669712848 0.1384264229721534 0  1.010694481903108 0.09444144775137242 0  1.011270831757008 0.04833345943934531 0  1.061210821844874 0 0  1.110696517949629 0 0  1.160451855662479 0 0  1.210597763602078 0 0  1.261255830962907 0 0  1.312548526341448 0 0  1.364599413591915 0 0  1.417533395492783 0 0  1.471476905091243 0 0  1.526558237826991 0 0  1.582907743009861 0 0  1.640658152623778 0 0  1.699945026522008 0 0  1.76090593662638 0 0  1.823683025868294 0 0  1.888421252799808 0 0  1.955269532502913 0 0  2.024381045157576 0 0  2.095913555965196 0 0  2.170029825327063 0 0  2.24689788648994 0 0  2.326691510357211 0 0  2.409590593745696 0 0  2.495781578395952 0 0  2.585457894540737 0 0  2.678820340802464 0 0  2.776077631143044 0 0  2.877446859308757 0 0  2.983153927867427 0 0  3.093434141017854 0 0  3.208532695353543 0 0  3.328705266321299 0 0  3.454218539734318 0 0  3.585350923691883 0 0  3.722392918373979 0 0  3.865648058136488 0 0  4.015433601688075 0 0  4.17208083606297 0 0  4.335936303323841 0 0  4.507362263394895 0 0  4.68673769816555 0 0  4.874458941745487 0 0  5.07014547455077 0 0  5.267339655567755 0 0  5.46453383658481 0 0  5.661728017602666 0 0  5.858922198620624 0 0  6.056116379638901 0 0  6.253310560656889 0 0  6.450504741674846 0 0  6.647698922692805 0 0  6.844893103710762 0 0  7.04208728472872 0 0  7.239281465746799 0 0  7.436475646764984 0 0  7.633669827782942 0 0  7.830864008801248 0 0  8.028058189819365 0 0  8.225252370837589 0 0  8.422446551855643 0 0  8.619640732873254 0 0  8.81683491389156 0 0  9.014029094909516 0 0  9.211223275927821 0 0  9.408417456946125 0 0  9.605611637963952 0 0  9.802805818981694 0 0  10 0.1999999999995579 0  10 0.3999999999989749 0  10 0.5999999999989468 0  10 0.7999999999994734 0  9.800575996776031 1 0  9.601151993552062 1 0  9.401727990328094 1 0  9.202303987104125 1 0  9.002879983880156 1 0  8.803455980656187 1 0  8.604031977432218 1 0  8.40460797420825 1 0  8.205183970984281 1 0  8.005759967760312 1 0  7.806335964536344 1 0  7.60691196131243 1 0  7.407487958088888 1 0  7.208063954865734 1 0  7.008639951642651 1 0  6.809215948419568 1 0  6.609791945196485 1 0  6.410367941973401 1 0  6.210943938750319 1 0  6.011519935527235 1 0  5.812095932304152 1 0  5.612671929081069 1 0  5.413247925857986 1 0  5.213823922634902 1 0  5.015243811921192 1 0  4.82435956465779 1 0  4.642328595289649 1 0  4.468740258785571 1 0  4.303202825842178 1 0  4.145342831167929 1 0  3.994804153950566 1 0  3.8512471484775 1 0  3.714347926054283 1 0  3.583797600332654 1 0  3.459301639331763 1 0  3.340579154667353 1 0  3.227362295170822 1 0  3.119395607879967 1 0  3.016435507943106 1 0  2.918249705556917 1 0  2.824616648174518 1 0  2.7353251101607 1 0  2.650173576439188 1 0  2.568969972376384 1 0  2.491531073154755 1 0  2.417682139602779 1 0  2.347256551205183 1 0  2.280095399177634 1 0  2.216047144131189 1 0  2.154967264670362 1 0  2.096717936489315 1 0  2.041167716830921 1 0  1.988191244259683 1 0  1.937668987932621 1 0  1.88948691248514 1 0  1.843536273225745 1 0  1.799713381735112 1 0  1.757919304409434 1 0  1.718059692679169 1 0  1.680044580871252 1 0  1.643788130897317 1 0  1.609208471979626 1 0  1.576227510650078 1 0  1.54477075146224 1 0  1.514767118537957 1 0  1.486148811166045 1 0  1.458851131196843 1 0  1.432812347986726 1 0  1.407973559295883 1 0  1.384278527233327 1 0  1.361673597288288 1 0  1.340107523681787 1 0  1.319531371942366 1 0  1.299898405239752 1 0  1.281163982429543 1 0  1.263285413268653 1 0  1.246221889667353 1 0  1.229934357922094 1 0  1.214385438433801 1 0 
[...]
<PointData  Tensors="f_3261"> 
<DataArray  type="Float64"  Name="f_3261"  NumberOfComponents="9" format="ascii">-5.3840392023032681e-03 -2.2947922577866528e-02 0.0000000000000000e+00 -2.2947922577866528e-02 -8.2799070638092012e-02 0.0000000000000000e+00 0.0000000000000000e+00 0.0000000000000000e+00 0.0000000000000000e+00  -7.9712322204730801e-01 9.9482415650622630e-02 0.0000000000000000e+00 9.9482415650622630e-02 1.6147368877772697e-01 0.0000000000000000e+00 0.0000000000000000e+00 0.0000000000000000e+00 0.0000000000000000e+00  2.4916926121706792e-01 2.0772209486433657e-01 0.0000000000000000e+00 2.0772209486433657e-01 -1.0027757288886976e+00 0.0000000000000000e+00 0.0000000000000000e+00 0.0000000000000000e+00 0.0000000000000000e+00  -6.0179081916249402e+00 -6.3056650760470967e-01 0.0000000000000000e+00 -6.3056650760470967e-01 -5.2198166924976297e+00 0.0000000000000000e+00 0.0000000000000000e+00 0.0000000000000000e+00 0.0000000000000000e+00  2.9470466229488596e-01 -2.2897370337019246e-02 0.0000000000000000e+00 -2.2897370337019246e-02 1.2960662982917396e-02 0.0000000000000000e+00 0.0000000000000000e+00 0.0000000000000000e+00 0.0000000000000000e+00  5.3783752196367293e-03 -2.2942841284134138e-02 0.0000000000000000e+00 -2.2942841284134138e-02 8.2912699244295868e-02 0.0000000000000000e+00 0.0000000000000000e+00 0.0000000000000000e+00 0.0000000000000000e+00  2.6445124892937480e-04 -1.8666059520291344e-04 0.0000000000000000e+00 -1.8666059520291344e-04 2.1773867319253980e-05 0.0000000000000000e+00 0.0000000000000000e+00 0.0000000000000000e+00 0.0000000000000000e+00  -2.5219912366818256e-04 -1.8542573165837358e-04 0.0000000000000000e+00 -1.8542573165837358e-04 -2.0261351711848957e-05 0.0000000000000000e+00 0.0000000000000000e+00 0.0000000000000000e+00 0.0000000000000000e+00  -1.7969453350605163e-02 -2.4444227370409161e-02 0.0000000000000000e+00 -2.4444227370409161e-02 -2.1878744954361869e-02 0.0000000000000000e+00 0.0000000000000000e+00 0.0000000000000000e+00 0.0000000000000000e+00  -1.8493106337405939e-02 -2.4518446652742592e-02 0.0000000000000000e+00 -2.4518446652742592e-02 -8.6867639647184424e-03 0.0000000000000000e+00 0.0000000000000000e+00 0.0000000000000000e+00 0.0000000000000000e+00  -2.1331200835138835e-02 -2.4532385854609512e-02 0.0000000000000000e+00 -2.4532385854609512e-02 -3.2959841596160860e-03 0.0000000000000000e+00 0.0000000000000000e+00 0.0000000000000000e+00 0.0000000000000000e+00  -2.4599551253351330e-02 -2.4521109950194013e-02 0.0000000000000000e+00 -2.4521109950194013e-02 -6.2617937574893266e-04 0.0000000000000000e+00 0.0000000000000000e+00 0.0000000000000000e+00 0.0000000000000000e+00  -2.8146636737780076e-02 -2.4534525183966604e-02 0.0000000000000000e+00 -2.4534525183966604e-02 6.9394179063341865e-04 0.0000000000000000e+00 0.0000000000000000e+00 0.0000000000000000e+00 0.0000000000000000e+00  -3.1942574614894428e-02 -2.4523254905563736e-02 0.0000000000000000e+00 -2.4523254905563736e-02 1.1593524720290313e-03 0.0000000000000000e+00 0.0000000000000000e+00 0.0000000000000000e+00 0.0000000000000000e+00  -3.5941493915926125e-02 -2.4538592912476929e-02 0.0000000000000000e+00 -2.4538592912476929e-02 1.2416420479360874e-03 0.0000000000000000e+00 0.0000000000000000e+00 0.0000000000000000e+00 0.0000000000000000e+00  -4.0135025352080286e-02 -2.4531733723013611e-02 0.0000000000000000e+00 -2.4531733723013611e-02 1.0891111757214921e-03 0.0000000000000000e+00 0.0000000000000000e+00 0.0000000000000000e+00 0.0000000000000000e+00  -4.4565347261509403e-02 -2.4530065743505140e-02 0.0000000000000000e+00 -2.4530065743505140e-02 8.5800286424134729e-04 0.0000000000000000e+00 0.0000000000000000e+00 0.0000000000000000e+00 0.0000000000000000e+00  -4.9071903488983708e-02 -2.4532196618138647e-02 0.0000000000000000e+00 -2.4532196618138647e-02 6.4294942731177079e-04 0.0000000000000000e+00 0.0000000000000000e+00 0.0000000000000000e+00 0.0000000000000000e+00  -5.3739843019450333e-02 -2.4531722281428903e-02 0.0000000000000000e+00 -2.4531722281428903e-02 4.4636989757345242e-04 0.0000000000000000e+00 0.0000000000000000e+00 0.0000000000000000e+00 0.0000000000000000e+00  -5.8461227820554094e-02 -2.4529615886520924e-02 0.0000000000000000e+00 -2.4529615886520924e-02 2.9027043785800774e-04 0.0000000000000000e+00 0.0000000000000000e+00 0.0000000000000000e+00 0.0000000000000000e+00  -6.3260467232337345e-02 -2.4529515820597120e-02 0.0000000000000000e+00 -2.4529515820597120e-02 1.7717163119263283e-04 0.0000000000000000e+00 0.0000000000000000e+00 0.0000000000000000e+00 0.0000000000000000e+00  -6.8049813098972206e-02 -2.4530333878267509e-02 0.0000000000000000e+00 -2.4530333878267509e-02 9.6689442779943809e-05 0.0000000000000000e+00 0.0000000000000000e+00 0.0000000000000000e+00 0.0000000000000000e+00  -7.2916932634775000e-02 -2.4530978141167208e-02 0.0000000000000000e+00 -2.4530978141167208e-02 4.3953770668790500e-05 0.0000000000000000e+00 0.0000000000000000e+00 0.0000000000000000e+00 0.0000000000000000e+00  -7.7742521510908630e-02 -2.4528315304225876e-02 0.0000000000000000e+00 -2.4528315304225876e-02 1.6544956509867042e-05 0.0000000000000000e+00 0.0000000000000000e+00 0.0000000000000000e+00 0.0000000000000000e+00  -8.2637681806571051e-02 -2.4531079260328718e-02 0.0000000000000000e+00 -2.4531079260328718e-02 -9.7970121614825478e-06 0.0000000000000000e+00 0.0000000000000000e+00 0.0000000000000000e+00 0.0000000000000000e+00  -8.7463452164864106e-02 -2.4529252831711909e-02 0.0000000000000000e+00 -2.4529252831711909e-02 -1.3686564249449191e-05 0.0000000000000000e+00 0.0000000000000000e+00 0.0000000000000000e+00 0.0000000000000000e+00  -9.2364544368387660e-02 -2.4530575637625163e-02 0.0000000000000000e+00 -2.4530575637625163e-02 -2.4742477795626012e-05 0.0000000000000000e+00 0.0000000000000000e+00 0.0000000000000000e+00 0.0000000000000000e+00  -9.7197788032155660e-02 -2.4532646032387216e-02 0.0000000000000000e+00 -2.4532646032387216e-02 -2.2414468105858044e-05 0.0000000000000000e+00 0.0000000000000000e+00 0.0000000000000000e+00 0.0000000000000000e+00  -1.0209036109217290e-01 -2.4531310426672063e-02 0.0000000000000000e+00 -2.4531310426672063e-02 -3.0815081663305311e-05 0.0000000000000000e+00 0.0000000000000000e+00 0.0000000000000000e+00 0.0000000000000000e+00  -1.0692334842400726e-01 -2.4533603718069421e-02 0.0000000000000000e+00 -2.4533603718069421e-02 -2.9671630658198164e-05 0.0000000000000000e+00 0.0000000000000000e+00 0.0000000000000000e+00 0.0000000000000000e+00  -1.1181757883720077e-01 -2.4530909780266695e-02 0.0000000000000000e+00 -2.4530909780266695e-02 -4.4280313266182115e-05 0.0000000000000000e+00 0.0000000000000000e+00 0.0000000000000000e+00 0.0000000000000000e+00  -1.1663002365375268e-01 -2.4530235765240046e-02 0.0000000000000000e+00 -2.4530235765240046e-02 -4.1872036911805848e-05 0.0000000000000000e+00 0.0000000000000000e+00 0.0000000000000000e+00 0.0000000000000000e+00  -1.2152016217048998e-01 -2.4532310714733021e-02 0.0000000000000000e+00 -2.4532310714733021e-02 -5.9487380530685211e-05 0.0000000000000000e+00 0.0000000000000000e+00 0.0000000000000000e+00 0.0000000000000000e+00  -1.2633773816430810e-01 -2.4531504050386441e-02 0.0000000000000000e+00 -2.4531504050386441e-02 -6.2511787919150211e-05 0.0000000000000000e+00 0.0000000000000000e+00 0.0000000000000000e+00 0.0000000000000000e+00  -1.3121760893963749e-01 -2.4529770965646479e-02 0.0000000000000000e+00 -2.4529770965646479e-02 -8.5692174835253431e-05 0.0000000000000000e+00 0.0000000000000000e+00 0.0000000000000000e+00 0.0000000000000000e+00  -1.3604102429179327e-01 -2.4522045746136256e-02 0.0000000000000000e+00 -2.4522045746136256e-02 -1.2526386226370341e-04 0.0000000000000000e+00 0.0000000000000000e+00 0.0000000000000000e+00 0.0000000000000000e+00  -1.4081692868030113e-01 -2.4536677651793026e-02 0.0000000000000000e+00 -2.4536677651793026e-02 -9.4879133581745123e-05 0.0000000000000000e+00 0.0000000000000000e+00 0.0000000000000000e+00 0.0000000000000000e+00  -1.4564901072405131e-01 -2.4523301307717096e-02 0.0000000000000000e+00 -2.4523301307717096e-02 -1.2125129997770875e-04 0.0000000000000000e+00 0.0000000000000000e+00 0.0000000000000000e+00 0.0000000000000000e+00  -1.5039980613394063e-01 -2.4538868188370720e-02 0.0000000000000000e+00 -2.4538868188370720e-02 -2.4906707026755252e-05 0.0000000000000000e+00 0.0000000000000000e+00 0.0000000000000000e+00 0.0000000000000000e+00  -1.5522302934517401e-01 -2.4524930874636773e-02 0.0000000000000000e+00 -2.4524930874636773e-02 9.0982623892067841e-05 0.0000000000000000e+00 0.0000000000000000e+00 0.0000000000000000e+00 0.0000000000000000e+00  -1.6003690300090806e-01 -2.4536390556705773e-02 0.0000000000000000e+00 -2.4536390556705773e-02 4.2474370726524767e-04 0.0000000000000000e+00 0.0000000000000000e+00 0.0000000000000000e+00 0.0000000000000000e+00  -1.6500047514819657e-01 -2.4522362159950486e-02 0.0000000000000000e+00 -2.4522362159950486e-02 9.2690680128579609e-04 0.0000000000000000e+00 0.0000000000000000e+00 0.0000000000000000e+00 0.0000000000000000e+00  -1.7012661475393004e-01 -2.4532717979329259e-02 0.0000000000000000e+00 -2.4532717979329259e-02 1.8847732378326442e-03 0.0000000000000000e+00 0.0000000000000000e+00 0.0000000000000000e+00 0.0000000000000000e+00  -1.7560428180529042e-01 -2.4533475398911493e-02 0.0000000000000000e+00 -2.4533475398911493e-02 3.3369721196453098e-03 0.0000000000000000e+00 0.0000000000000000e+00 0.0000000000000000e+00 0.0000000000000000e+00  -1.8151583663494444e-01 -2.4531504971224569e-02 0.0000000000000000e+00 -2.4531504971224569e-02 5.4461811183169079e-03 0.0000000000000000e+00 0.0000000000000000e+00 0.0000000000000000e+00 0.0000000000000000e+00  -1.8796824206370250e-01 -2.4530935757453444e-02 0.0000000000000000e+00 -2.4530935757453444e-02 8.3236138571201913e-03 0.0000000000000000e+00 0.0000000000000000e+00 0.0000000000000000e+00 0.0000000000000000e+00  -1.9537812202895072e-01 -2.4532072065579075e-02 0.0000000000000000e+00 -2.4532072065579075e-02 1.2015938568622857e-02 0.0000000000000000e+00 0.0000000000000000e+00 0.0000000000000000e+00 0.0000000000000000e+00  -2.0398821192915251e-01 -2.4533122913139891e-02 0.0000000000000000e+00 -2.4533122913139891e-02 1.6554562506304951e-02 0.0000000000000000e+00 0.0000000000000000e+00 0.0000000000000000e+00 0.0000000000000000e+00  -2.1429704600935739e-01 -2.4537080344974378e-02 0.0000000000000000e+00 -2.4537080344974378e-02 2.1885006228920041e-02 0.0000000000000000e+00 0.0000000000000000e+00 0.0000000000000000e+00 0.0000000000000000e+00  -2.2677766154289222e-01 -2.4515067603174297e-02 0.0000000000000000e+00 -2.4515067603174297e-02 2.7847718768060099e-02 0.0000000000000000e+00 0.0000000000000000e+00 0.0000000000000000e+00 0.0000000000000000e+00  -2.4212166345987438e-01 -2.4542014190530700e-02 0.0000000000000000e+00 -2.4542014190530700e-02 3.4475469726871218e-02 0.0000000000000000e+00 0.0000000000000000e+00 0.0000000000000000e+00 0.0000000000000000e+00  -2.6141812134496512e-01 -2.4548257998537458e-02 0.0000000000000000e+00 -2.4548257998537458e-02 4.1493215264595297e-02 0.0000000000000000e+00 0.0000000000000000e+00 0.0000000000000000e+00 0.0000000000000000e+00  -2.8664152899791084e-01 -2.4559370289023202e-02 0.0000000000000000e+00 -2.4559370289023202e-02 4.8952688182158095e-02 0.0000000000000000e+00 0.0000000000000000e+00 0.0000000000000000e+00 0.0000000000000000e+00  -3.2113664624577953e-01 -2.4523632650586925e-02 0.0000000000000000e+00 -2.4523632650586925e-02 5.7223125917965779e-02 0.0000000000000000e+00 0.0000000000000000e+00 0.0000000000000000e+00 0.0000000000000000e+00  -3.7344614324811126e-01 -2.4458203147160799e-02 0.0000000000000000e+00 -2.4458203147160799e-02 6.7009372462958572e-02 0.0000000000000000e+00 0.0000000000000000e+00 0.0000000000000000e+00 0.0000000000000000e+00  -4.4796060687638356e-01 -2.4417723815357228e-02 0.0000000000000000e+00 -2.4417723815357228e-02 7.8244430065539855e-02 0.0000000000000000e+00 0.0000000000000000e+00 0.0000000000000000e+00 0.0000000000000000e+00  -5.8042288203429360e-01 -2.7440791462748287e-02 0.0000000000000000e+00 -2.7440791462748287e-02 8.7088185155686476e-02 0.0000000000000000e+00 0.0000000000000000e+00 0.0000000000000000e+00 0.0000000000000000e+00  -5.5840419579295053e-01 2.2758784501766682e-01 0.0000000000000000e+00 2.2758784501766682e-01 8.6969289901968352e-02 0.0000000000000000e+00 0.0000000000000000e+00 0.0000000000000000e+00 0.0000000000000000e+00  -4.4838913239045575e-01 2.2570572463575533e-01 0.0000000000000000e+00 2.2570572463575533e-01 7.9783677771827391e-02 0.0000000000000000e+00 0.0000000000000000e+00 0.0000000000000000e+00 0.0000000000000000e+00  -3.8517716448427392e-01 2.2547574907285980e-01 0.0000000000000000e+00 2.2547574907285980e-01 7.1268325782653477e-02 0.0000000000000000e+00 0.0000000000000000e+00 0.0000000000000000e+00 0.0000000000000000e+00  -3.3935154216322766e-01 2.2546596328973867e-01 0.0000000000000000e+00 2.2546596328973867e-01 6.4171787252597270e-02 0.0000000000000000e+00 0.0000000000000000e+00 0.0000000000000000e+00 0.0000000000000000e+00  -3.0254787906152547e-01 2.2545204569792585e-01 0.0000000000000000e+00 2.2545204569792585e-01 5.8139475602268134e-02 0.0000000000000000e+00 0.0000000000000000e+00 0.0000000000000000e+00 0.0000000000000000e+00  -2.7086221697072416e-01 2.2544816894049202e-01 0.0000000000000000e+00 2.2544816894049202e-01 5.2914937752658091e-02 0.0000000000000000e+00 0.0000000000000000e+00 0.0000000000000000e+00 0.0000000000000000e+00  -2.4328816064253281e-01 2.2545039428525823e-01 0.0000000000000000e+00 2.2545039428525823e-01 4.7908554195038332e-02 0.0000000000000000e+00 0.0000000000000000e+00 0.0000000000000000e+00 0.0000000000000000e+00  -2.1810573076924272e-01 2.2544358153941368e-01 0.0000000000000000e+00 2.2544358153941368e-01 4.3175164294304173e-02 0.0000000000000000e+00 0.0000000000000000e+00 0.0000000000000000e+00 0.0000000000000000e+00  -1.9513858525555053e-01 2.2544744511618292e-01 0.0000000000000000e+00 2.2544744511618292e-01 3.8518255253951840e-02 0.0000000000000000e+00 0.0000000000000000e+00 0.0000000000000000e+00 0.0000000000000000e+00  -1.7361283244887421e-01 2.2548755329098435e-01 0.0000000000000000e+00 2.2548755329098435e-01 3.3860715080261360e-02 0.0000000000000000e+00 0.0000000000000000e+00 0.0000000000000000e+00 0.0000000000000000e+00  -1.5316040052870664e-01 2.2542968709670755e-01 0.0000000000000000e+00 2.2542968709670755e-01 2.9541553695054963e-02 0.0000000000000000e+00 0.0000000000000000e+00 0.0000000000000000e+00 0.0000000000000000e+00  -1.3363064499751068e-01 2.2544492511053418e-01 0.0000000000000000e+00 2.2544492511053418e-01 2.4980937099779683e-02 0.0000000000000000e+00 0.0000000000000000e+00 0.0000000000000000e+00 0.0000000000000000e+00  -1.1502705365333653e-01 2.2544717765593178e-01 0.0000000000000000e+00 2.2544717765593178e-01 2.0454322790879234e-02 0.0000000000000000e+00 0.0000000000000000e+00 0.0000000000000000e+00 0.0000000000000000e+00  -9.6833126011595272e-02 2.2545274351913056e-01 0.0000000000000000e+00 2.2545274351913056e-01 1.5955248914725845e-02 0.0000000000000000e+00 0.0000000000000000e+00 0.0000000000000000e+00 0.0000000000000000e+00  -7.9376768314840765e-02 2.2544526884050642e-01 0.0000000000000000e+00 2.2544526884050642e-01 1.1389005483245920e-02 0.0000000000000000e+00 0.0000000000000000e+00 0.0000000000000000e+00 0.0000000000000000e+00  -6.2102656155193989e-02 2.2544276257650611e-01 0.0000000000000000e+00 2.2544276257650611e-01 6.9165097993437834e-03 0.0000000000000000e+00 0.0000000000000000e+00 0.0000000000000000e+00 0.0000000000000000e+00  -4.5363973231938831e-02 2.2544154313342829e-01 0.0000000000000000e+00 2.2544154313342829e-01 2.4609047178076214e-03 0.0000000000000000e+00 0.0000000000000000e+00 0.0000000000000000e+00 0.0000000000000000e+00  -2.8728901181648555e-02 2.2545670163295575e-01 0.0000000000000000e+00 2.2545670163295575e-01 -1.8972878944437722e-03 0.0000000000000000e+00 0.0000000000000000e+00 0.0000000000000000e+00 0.0000000000000000e+00  -1.2542778883670719e-02 2.2546029901712986e-01 0.0000000000000000e+00 2.2546029901712986e-01 -6.2245108113489420e-03 0.0000000000000000e+00 0.0000000000000000e+00 0.0000000000000000e+00 0.0000000000000000e+00  3.4812432247669617e-03 2.2544338283936358e-01 0.0000000000000000e+00 2.2544338283936358e-01 -1.0369641050283528e-02 0.0000000000000000e+00 0.0000000000000000e+00 0.0000000000000000e+00 0.0000000000000000e+00  1.9352258688919745e-02 2.2545209019855048e-01 0.0000000000000000e+00 2.2545209019855048e-01 -1.4343217362778164e-02 0.0000000000000000e+00 0.0000000000000000e+00 0.0000000000000000e+00 0.0000000000000000e+00  3.4672065402058271e-02 2.2545053364068693e-01 0.0000000000000000e+00 2.2545053364068693e-01 -1.8091297085292782e-02 0.0000000000000000e+00 0.0000000000000000e+00 0.0000000000000000e+00 0.0000000000000000e+00  4.9962774725418803e-02 2.2543743745838291e-01 0.0000000000000000e+00 2.2543743745838291e-01 -2.1451994604623405e-02 0.0000000000000000e+00 0.0000000000000000e+00 0.0000000000000000e+00 0.0000000000000000e+00  6.4695793812794097e-02 2.2544727496016573e-01 0.0000000000000000e+00 2.2544727496016573e-01 -2.4460753231694696e-02 0.0000000000000000e+00 0.0000000000000000e+00 0.0000000000000000e+00 0.0000000000000000e+00  7.8872368995017039e-02 2.2544802986986864e-01 0.0000000000000000e+00 2.2544802986986864e-01 -2.6977315891960549e-02 0.0000000000000000e+00 0.0000000000000000e+00 0.0000000000000000e+00 0.0000000000000000e+00  9.2660590173094803e-02 2.2544077880853314e-01 0.0000000000000000e+00 2.2544077880853314e-01 -2.8962142675736834e-02 0.0000000000000000e+00 0.0000000000000000e+00 0.0000000000000000e+00 0.0000000000000000e+00  1.0549333537942995e-01 2.2545016448700581e-01 0.0000000000000000e+00 2.2545016448700581e-01 -3.0434043464715108e-02 0.0000000000000000e+00 0.0000000000000000e+00 0.0000000000000000e+00 0.0000000000000000e+00  1.1771947573154450e-01 2.2544278715890545e-01 0.0000000000000000e+00 2.2544278715890545e-01 -3.1301926922014466e-02 0.0000000000000000e+00 0.0000000000000000e+00 0.0000000000000000e+00 0.0000000000000000e+00  1.2865316881045358e-01 2.2544658022853595e-01 0.0000000000000000e+00 2.2544658022853595e-01 -3.1765007488825311e-02 0.0000000000000000e+00 0.0000000000000000e+00 0.0000000000000000e+00 0.0000000000000000e+00  1.3862672348780830e-01 2.2544834041883138e-01 0.0000000000000000e+00 2.2544834041883138e-01 -3.1927943692652699e-02 0.0000000000000000e+00 0.0000000000000000e+00 0.0000000000000000e+00 0.0000000000000000e+00  1.4704845648390572e-01 2.2542928821607139e-01 0.0000000000000000e+00 2.2542928821607139e-01 -3.2171495812572067e-02 0.0000000000000000e+00 0.0000000000000000e+00 0.0000000000000000e+00 0.0000000000000000e+00  1.5416229679470625e-01 2.2542618025467104e-01 0.0000000000000000e+00 2.2542618025467104e-01 -3.3012379299360607e-02 0.0000000000000000e+00 0.0000000000000000e+00 0.0000000000000000e+00 0.0000000000000000e+00  1.5946858662295582e-01 2.2546841090177441e-01 0.0000000000000000e+00 2.2546841090177441e-01 -3.5587871113442741e-02 0.0000000000000000e+00 0.0000000000000000e+00 0.0000000000000000e+00 0.0000000000000000e+00  1.6333171144647823e-01 2.2542294825974110e-01 0.0000000000000000e+00 2.2542294825974110e-01 -4.1067355804465189e-02 0.0000000000000000e+00 0.0000000000000000e+00 0.0000000000000000e+00 0.0000000000000000e+00  1.6532575849961895e-01 2.2542777067033856e-01 0.0000000000000000e+00 2.2542777067033856e-01 -5.2227424769671030e-02 0.0000000000000000e+00 0.0000000000000000e+00 0.0000000000000000e+00 0.0000000000000000e+00  1.6580068717104371e-01 2.2543725477676424e-01 0.0000000000000000e+00 2.2543725477676424e-01 -7.2829309748450852e-02 0.0000000000000000e+00 0.0000000000000000e+00 0.0000000000000000e+00 0.0000000000000000e+00  1.6478904063285121e-01 2.2539652456981221e-01 0.0000000000000000e+00 2.2539652456981221e-01 -1.1098417815910687e-01 0.0000000000000000e+00 0.0000000000000000e+00 0.0000000000000000e+00 0.0000000000000000e+00  1.6235972105927693e-01 2.2544119839168350e-01 0.0000000000000000e+00 2.2544119839168350e-01 -1.8141649611225186