<?xml version="1.0"?>
<VTKFile type="UnstructuredGrid"  version="0.1"  >
<UnstructuredGrid>
<Piece  NumberOfPoints="4429" NumberOfCells="8359">
<Points>
<DataArray  type="Float64"  NumberOfComponents="3"  format="ascii">-10 0 0  -1 0 0  0.951 0 0  1 0.9800000000000001 0  1.049 0 0  10 0 0  10 1 0  -10 1 0  -9.802554013089141 0 0  -9.605108026178284 0 0  -9.407662039267425 0 0  -9.210216052356566 0 0  -9.012770065445709 0 0  -8.81532407853485 0 0  -8.617878091623993 0 0  -8.420432104713134 0 0  -8.222986117802275 0 0  -8.025540130891416 0 0  -7.828094143980559 0 0  -7.6306481570697 0 0  -7.433202170158843 0 0  -7.235756183247984 0 0  -7.038310196337125 0 0  -6.840864209426267 0 0  -6.643418222515409 0 0  -6.44597223560455 0 0  -6.248526248693692 0 0  -6.051080261782834 0 0  -5.853634274871975 0 0  -5.656188287961117 0 0  -5.45874230104978 0 0  -5.261296314137045 0 0  -5.063850327224237 0 0  -4.86640434031143 0 0  -4.668958353398622 0 0  -4.471512366485814 0 0  -4.274066379573007 0 0  -4.076620392660199 0 0  -3.879174405747391 0 0  -3.681728418834583 0 0  -3.484282431921778 0 0  -3.286836445008971 0 0  -3.089528835888936 0 0  -2.897893450675969 0 0  -2.714518366963274 0 0  -2.539024380791295 0 0  -2.371048507534689 0 0  -2.210243239427245 0 0  -2.056275677508049 0 0  -1.908827055995062 0 0  -1.767591993288077 0 0  -1.632277788586958 0 0  -1.50260382528746 0 0  -1.378301182712709 0 0  -1.259812533161861 0 0  -1.16651871091986 0 0  -1.099933785278184 0 0  -1.049361496727714 0 0  -0.9512250000000945 0 0  -0.9024500000001888 0 0  -0.8536750000002703 0 0  -0.8049000000003343 0 0  -0.7561250000003854 0 0  -0.7073500000005102 0 0  -0.6585750000006696 0 0  -0.6098000000008421 0 0  -0.5610250000010188 0 0  -0.5122500000011175 0 0  -0.4634750000012813 0 0  -0.4147000000014364 0 0  -0.3659250000015307 0 0  -0.317150000001664 0 0  -0.2683750000018279 0 0  -0.2196000000019915 0 0  -0.1708250000021251 0 0  -0.1220500000022198 0 0  -0.07327500000237508 0 0  -0.0245000000025174 0 0  0.02427499999759219 0 0  0.07304999999769768 0 0  0.1218249999978809 0 0  0.1705999999980294 0 0  0.2193749999981609 0 0  0.2681499999982573 0 0  0.3169249999983539 0 0  0.3656999999985115 0 0  0.4144749999986339 0 0  0.4632499999987305 0 0  0.5120249999988271 0 0  0.5607999999989499 0 0  0.6095749999991071 0 0  0.6583499999992035 0 0  0.7071249999993001 0 0  0.7558999999994316 0 0  0.8046749999995799 0 0  0.8534499999997636 0 0  0.9022249999998688 0 0  0.9534195301692833 0.04839060338566614 0  0.9557313150398183 0.09462630079636727 0  0.9579401213501951 0.1388024270039022 0  0.9600505356343685 0.1810107126873709 0  0.9620669416035847 0.2213388320716948 0  0.9639935261455963 0.2598705229119266 0  0.9658342909049046 0.2966858180980914 0  0.9675930582888272 0.3318611657765465 0  0.9692734807072674 0.3654696141453479 0  0.9708790489119635 0.3975809782392717 0  0.9724130971177726 0.4282619423554529 0  0.973878810573404 0.4575762114680805 0  0.9752792335335838 0.4855846706716769 0  0.9766172743970408 0.5123454879408161 0  0.9778957120023357 0.5379142400467136 0  0.9791172014812847 0.5623440296256942 0  0.9802842795243265 0.5856855904865308 0  0.9813993697819932 0.6079873956398633 0  0.9824647881812603 0.6292957636252047 0  0.9834827473671146 0.6496549473422935 0  0.9844553614708645 0.6691072294172915 0  0.9853846501654914 0.6876930033098272 0  0.9862725438436993 0.7054508768739872 0  0.9871208858079471 0.7224177161589416 0  0.9879314382856762 0.7386287657135238 0  0.9887058848173153 0.7541176963463054 0  0.989445833408641 0.768916668172821 0  0.9901528207521603 0.7830564150432057 0  0.9908283152976436 0.796566305952871 0  0.9914737198559102 0.8094743971182031 0  0.9920903746852821 0.8218074937056415 0  0.9926795605596579 0.833591211193157 0  0.9932425010354499 0.8448500207089967 0  0.9937803652582449 0.855607305164897 0  0.994294270253818 0.8658854050763608 0  0.9947852832050572 0.875705664101145 0  0.9952544239573586 0.8850884791471731 0  0.9957026667727091 0.894053335454182 0  0.9961309424475169 0.9026188489503381 0  0.9965401406125378 0.9108028122507564 0  0.9969311109319927 0.9186222186398537 0  0.9972979395948884 0.925958791897769 0  0.9975771231727073 0.9315424634541464 0  0.9978194108554368 0.9363882171087362 0  0.9980616985381663 0.9412339707633259 0  0.9983039862208958 0.9460797244179155 0  0.9985462739036253 0.9509254780725053 0  0.9987885615863548 0.9557712317270949 0  0.9990308492690837 0.9606169853816745 0  0.9992731369518125 0.9654627390362505 0  0.9995154246345413 0.9703084926908265 0  0.9997577123172705 0.9751542463454104 0  1.000242287619088 0.9751542476182306 0  1.000484575238177 0.9703084952364674 0  1.000726862857264 0.965462742854713 0  1.000969150476352 0.9606169904729586 0  1.00121143809544 0.9557712380912038 0  1.001453725714528 0.950925485709448 0  1.001696013333615 0.9460797333276921 0  1.001938300952703 0.9412339809459365 0  1.002180588571791 0.936388228564182 0  1.002422876190879 0.9315424761824276 0  1.00270205945637 0.9259588108725986 0  1.003068887863367 0.9186222427326546 0  1.003459858021939 0.9108028395612165 0  1.003869056013262 0.9026188797347627 0  1.004297331501342 0.8940533699731672 0  1.004745574115717 0.8850885176856599 0  1.005214714652044 0.875705706959109 0  1.005705727371559 0.8658854525688139 0  1.006219632118225 0.8556073576354919 0  1.006757496074071 0.8448500785185744 0  1.007320436264013 0.833591274719732 0  1.007909621831992 0.8218075633601594 0  1.008526276333453 0.8094744733309421 0  1.009171680540469 0.7965663891906228 0  1.009847174710288 0.7830565057942385 0  1.010554161652656 0.7689167669468788 0  1.011294109814336 0.7541178037132724 0  1.012068555888051 0.7386288822389881 0  1.012879107875333 0.7224178424933334 0  1.013727449316774 0.7054510136645085 0  1.014615342438527 0.6876931512294584 0  1.01554463053947 0.6691073892106065 0  1.01651724400844 0.6496551198311912 0  1.017535202519137 0.629295949617259 0  1.018600620198858 0.6079875960228308 0  1.019715709688296 0.5856858062340813 0  1.02088278691514 0.5623442616971894 0  1.022104275525486 0.5379144894902816 0  1.023382712205046 0.5123457558990858 0  1.024720752086354 0.4855849582729159 0  1.026121173997244 0.4575765200551124 0  1.027586886339869 0.4282622732026142 0  1.02912093336219 0.3975813327562022 0  1.030726500310445 0.3654699937910973 0  1.032406921395411 0.3318615720917728 0  1.034165687359663 0.296686252806729 0  1.036006450610098 0.2598709877980429 0  1.037933033551025 0.2213393289794967 0  1.039949437816924 0.1810112436615241 0  1.04205985029927 0.1388029940146095 0  1.044268654691694 0.09462690616611025 0  1.046580437531734 0.04839124936531258 0  1.098439421387664 0 0  1.148103552769193 0 0  1.198105555878785 0 0  1.248559122676157 0 0  1.299578651341825 0 0  1.351279450480086 0 0  1.403777904425636 0 0  1.457191707733333 0 0  1.511640084378326 0 0  1.567243981386274 0 0  1.624126303291478 0 0  1.682412230251265 0 0  1.742229280083145 0 0  1.80370777842879 0 0  1.866981029746545 0 0  1.932185710688531 0 0  1.999461932701801 0 0  2.068953737772842 0 0  2.140809380592333 0 0  2.215181558535948 0 0  2.292227858549881 0 0  2.372111030122798 0 0  2.454999386142974 0 0  2.5410670888315 0 0  2.630494645599965 0 0  2.72346916867339 0 0  2.820184892935815 0 0  2.920843526261836 0 0  3.025654662648199 0 0  3.134836313434699 0 0  3.248615300595183 0 0  3.367227746767349 0 0  3.490919593349961 0 0  3.619947114350479 0 0  3.75457746218307 0 0  3.895089184147874 0 0  4.041772823570629 0 0  4.194931675765645 0 0  4.354882125594311 0 0  4.52195452443382 0 0  4.696493834771779 0 0  4.8788603474221 0 0  5.069430426740322 0 0  5.266323491503023 0 0  5.463560012690424 0 0  5.660796533877221 0 0  5.858033055064668 0 0  6.055269576252114 0 0  6.252506097439559 0 0  6.449742618627006 0 0  6.646979139814452 0 0  6.844215661001897 0 0  7.041452182189342 0 0  7.238688703376265 0 0  7.435925224563542 0 0  7.633161745750987 0 0  7.830398266938433 0 0  8.027634788125878 0 0  8.224871309313325 0 0  8.422107830500771 0 0  8.619344351688218 0 0  8.816580872875663 0 0  9.013817394063109 0 0  9.211053915250554 0 0  9.408290436438 0 0  9.60552695762545 0 0  9.802763478812901 0 0  10 0.1999999999995579 0  10 0.3999999999989749 0  10 0.5999999999989468 0  10 0.7999999999994734 0  9.800141670215817 1 0  9.600283340431632 1 0  9.400425010647449 1 0  9.200566680863266 1 0  9.000708351079084 1 0  8.800850021294899 1 0  8.600991691510716 1 0  8.401133361726533 1 0  8.201275031942348 1 0  8.001416702158165 1 0  7.801558372373982 1 0  7.60170004258986 1 0  7.401841712806116 1 0  7.201983383022755 1 0  7.002125053239459 1 0  6.802266723456164 1 0  6.602408393672867 1 0  6.402550063889572 1 0  6.202691734106276 1 0  6.002833404322979 1 0  5.802975074539684 1 0  5.603116744756388 1 0  5.403258414973092 1 0  5.203548616019166 1 0  5.009826402900735 1 0  4.824811261014097 1 0  4.648111726293367 1 0  4.479354103391845 1 0  4.318181394505415 1 0  4.16425264304353 1 0  4.017242335019464 1 0  3.876839474307742 1 0  3.742747062562249 1 0  3.614681474842111 1 0  3.492371794093467 1 0  3.375559339559234 1 0  3.263996986754614 1 0  3.157448767448919 1 0  3.055689319319789 1 0  2.958503364349493 1 0  2.865685347283568 1 0  2.777038932416495 1 0  2.692376617150983 1 0  2.611519307609105 1 0  2.534295946686925 1 0  2.460543223248667 1 0  2.390105112366604 1 0  2.322832628695833 1 0  2.258583452175685 1 0  2.197221695741291 1 0  2.138617552030039 1 0  2.082647059205139 1 0  2.029191813154845 1 0  1.978138739645086 1 0  1.929379860549648 1 0  1.882812020447231 1 0  1.838336702398948 1 0  1.795859844321475 1 0  1.755291572633034 1 0  1.716546067368407 1 0  1.679541373577925 1 0  1.644199209442496 1 0  1.610444796059657 1 0  1.578206725703859 1 0  1.547416796430486 1 0  1.518009862327384 1 0  1.489923699426647 1 0  1.463098881543928 1 0  1.437478643823194 1 0  1.413008768537219 1 0  1.38963746513442 1 0  1.367315269512696 1 0  1.34599492329577 1 0  1.325631292087664 1 0  1.306181240973887 1 0  
[...]
<PointData  Vectors="f_7462"> 
<DataArray  type="Float64"  Name="f_7462"  NumberOfComponents="3" format="ascii">3.2025891511062386e-04 0.0000000000000000e+00 0.0000000000000000e+00  1.3668633930318013e-04 0.0000000000000000e+00 0.0000000000000000e+00  7.8072075092639688e-05 0.0000000000000000e+00 0.0000000000000000e+00  3.4534144501861119e-04 -1.3372144041530069e-04 0.0000000000000000e+00  5.4839686788966165e-04 0.0000000000000000e+00 0.0000000000000000e+00  6.7508633193322416e-04 0.0000000000000000e+00 0.0000000000000000e+00  6.6606966018242157e-04 2.3642871671577744e-06 0.0000000000000000e+00  3.1124225375847743e-04 -2.3642881115012039e-06 0.0000000000000000e+00  3.2054361599536844e-04 0.0000000000000000e+00 0.0000000000000000e+00  3.2021377403883635e-04 0.0000000000000000e+00 0.0000000000000000e+00  3.1967548953358132e-04 0.0000000000000000e+00 0.0000000000000000e+00  3.1898021177895208e-04 0.0000000000000000e+00 0.0000000000000000e+00  3.1814746092903649e-04 0.0000000000000000e+00 0.0000000000000000e+00  3.1718578586543105e-04 0.0000000000000000e+00 0.0000000000000000e+00  3.1609736571933876e-04 0.0000000000000000e+00 0.0000000000000000e+00  3.1488037246425949e-04 0.0000000000000000e+00 0.0000000000000000e+00  3.1353092212730031e-04 0.0000000000000000e+00 0.0000000000000000e+00  3.1204450086834293e-04 0.0000000000000000e+00 0.0000000000000000e+00  3.1041685102467303e-04 0.0000000000000000e+00 0.0000000000000000e+00  3.0864440137958333e-04 0.0000000000000000e+00 0.0000000000000000e+00  3.0672438798056263e-04 0.0000000000000000e+00 0.0000000000000000e+00  3.0465480072478521e-04 0.0000000000000000e+00 0.0000000000000000e+00  3.0243425329046751e-04 0.0000000000000000e+00 0.0000000000000000e+00  3.0006183588012950e-04 0.0000000000000000e+00 0.0000000000000000e+00  2.9753698149070489e-04 0.0000000000000000e+00 0.0000000000000000e+00  2.9485935803054398e-04 0.0000000000000000e+00 0.0000000000000000e+00  2.9202878833646740e-04 0.0000000000000000e+00 0.0000000000000000e+00  2.8904519529385312e-04 0.0000000000000000e+00 0.0000000000000000e+00  2.8590856761273532e-04 0.0000000000000000e+00 0.0000000000000000e+00  2.8261894180797660e-04 0.0000000000000000e+00 0.0000000000000000e+00  2.7917639656120571e-04 0.0000000000000000e+00 0.0000000000000000e+00  2.7558105624882060e-04 0.0000000000000000e+00 0.0000000000000000e+00  2.7183310052780838e-04 0.0000000000000000e+00 0.0000000000000000e+00  2.6793277604300912e-04 0.0000000000000000e+00 0.0000000000000000e+00  2.6388040404894938e-04 0.0000000000000000e+00 0.0000000000000000e+00  2.5967637336522624e-04 0.0000000000000000e+00 0.0000000000000000e+00  2.5532110074834519e-04 0.0000000000000000e+00 0.0000000000000000e+00  2.5081492939748402e-04 0.0000000000000000e+00 0.0000000000000000e+00  2.4615791960354278e-04 0.0000000000000000e+00 0.0000000000000000e+00  2.4134946534052097e-04 0.0000000000000000e+00 0.0000000000000000e+00  2.3638763660279659e-04 0.0000000000000000e+00 0.0000000000000000e+00  2.3126810618683512e-04 0.0000000000000000e+00 0.0000000000000000e+00  2.2598631695447936e-04 0.0000000000000000e+00 0.0000000000000000e+00  2.2068379707814142e-04 0.0000000000000000e+00 0.0000000000000000e+00  2.1543011225574397e-04 0.0000000000000000e+00 0.0000000000000000e+00  2.1020961846576549e-04 0.0000000000000000e+00 0.0000000000000000e+00  2.0500029313732176e-04 0.0000000000000000e+00 0.0000000000000000e+00  1.9977389717997028e-04 0.0000000000000000e+00 0.0000000000000000e+00  1.9449638054478330e-04 0.0000000000000000e+00 0.0000000000000000e+00  1.8912764543420793e-04 0.0000000000000000e+00 0.0000000000000000e+00  1.8362041949955915e-04 0.0000000000000000e+00 0.0000000000000000e+00  1.7791710810299315e-04 0.0000000000000000e+00 0.0000000000000000e+00  1.7194298072550367e-04 0.0000000000000000e+00 0.0000000000000000e+00  1.6559187173883976e-04 0.0000000000000000e+00 0.0000000000000000e+00  1.5873709298045910e-04 0.0000000000000000e+00 0.0000000000000000e+00  1.5251699947338109e-04 0.0000000000000000e+00 0.0000000000000000e+00  1.4736579329234788e-04 0.0000000000000000e+00 0.0000000000000000e+00  1.4277940571784628e-04 0.0000000000000000e+00 0.0000000000000000e+00  1.3062594089087508e-04 0.0000000000000000e+00 0.0000000000000000e+00  1.2621681693859767e-04 0.0000000000000000e+00 0.0000000000000000e+00  1.2243068698709444e-04 0.0000000000000000e+00 0.0000000000000000e+00  1.1905305946334686e-04 0.0000000000000000e+00 0.0000000000000000e+00  1.1598040698003898e-04 0.0000000000000000e+00 0.0000000000000000e+00  1.1315123879468670e-04 0.0000000000000000e+00 0.0000000000000000e+00  1.1052386413015739e-04 0.0000000000000000e+00 0.0000000000000000e+00  1.0806791441215179e-04 0.0000000000000000e+00 0.0000000000000000e+00  1.0575982433620516e-04 0.0000000000000000e+00 0.0000000000000000e+00  1.0358053224045074e-04 0.0000000000000000e+00 0.0000000000000000e+00  1.0151407331103733e-04 0.0000000000000000e+00 0.0000000000000000e+00  9.9546716925169850e-05 0.0000000000000000e+00 0.0000000000000000e+00  9.7666421883920061e-05 0.0000000000000000e+00 0.0000000000000000e+00  9.5862505954393980e-05 0.0000000000000000e+00 0.0000000000000000e+00  9.4125423060909775e-05 0.0000000000000000e+00 0.0000000000000000e+00  9.2446662676331292e-05 0.0000000000000000e+00 0.0000000000000000e+00  9.0818704078364062e-05 0.0000000000000000e+00 0.0000000000000000e+00  8.9235049144335596e-05 0.0000000000000000e+00 0.0000000000000000e+00  8.7690292396024828e-05 0.0000000000000000e+00 0.0000000000000000e+00  8.6180245052591342e-05 0.0000000000000000e+00 0.0000000000000000e+00  8.4702090087117484e-05 0.0000000000000000e+00 0.0000000000000000e+00  8.3254592549359487e-05 0.0000000000000000e+00 0.0000000000000000e+00  8.1838315803169136e-05 0.0000000000000000e+00 0.0000000000000000e+00  8.0455881873080774e-05 0.0000000000000000e+00 0.0000000000000000e+00  7.9112232959128575e-05 0.0000000000000000e+00 0.0000000000000000e+00  7.7814899610925667e-05 0.0000000000000000e+00 0.0000000000000000e+00  7.6574244689656831e-05 0.0000000000000000e+00 0.0000000000000000e+00  7.5403664560660567e-05 0.0000000000000000e+00 0.0000000000000000e+00  7.4319736306357361e-05 0.0000000000000000e+00 0.0000000000000000e+00  7.3342292251044345e-05 0.0000000000000000e+00 0.0000000000000000e+00  7.2494349102007611e-05 0.0000000000000000e+00 0.0000000000000000e+00  7.1802099573777366e-05 0.0000000000000000e+00 0.0000000000000000e+00  7.1294778366741204e-05 0.0000000000000000e+00 0.0000000000000000e+00  7.1004822148590147e-05 0.0000000000000000e+00 0.0000000000000000e+00  7.0968888061675428e-05 0.0000000000000000e+00 0.0000000000000000e+00  7.1230254591926487e-05 0.0000000000000000e+00 0.0000000000000000e+00  7.1846119280532394e-05 0.0000000000000000e+00 0.0000000000000000e+00  7.2907113055871250e-05 0.0000000000000000e+00 0.0000000000000000e+00  7.4613363006348571e-05 0.0000000000000000e+00 0.0000000000000000e+00  8.4540565952765704e-05 -1.0568921704928803e-05 0.0000000000000000e+00  9.0625106356787005e-05 -1.7182291069316025e-05 0.0000000000000000e+00  9.6411430923271712e-05 -2.2430882643446342e-05 0.0000000000000000e+00  1.0192170456838584e-04 -2.6833180902944370e-05 0.0000000000000000e+00  1.0718292685777763e-04 -3.0649751343134834e-05 0.0000000000000000e+00  1.1221789301987171e-04 -3.4035927331054260e-05 0.0000000000000000e+00  1.1704783155378150e-04 -3.7095067356014432e-05 0.0000000000000000e+00  1.2169227950035834e-04 -3.9900532679330787e-05 0.0000000000000000e+00  1.2616946954036466e-04 -4.2506654629993723e-05 0.0000000000000000e+00  1.3049644421865895e-04 -4.4954991007769543e-05 0.0000000000000000e+00  1.3468910566229780e-04 -4.7277933576934619e-05 0.0000000000000000e+00  1.3876227630865270e-04 -4.9501193139327068e-05 0.0000000000000000e+00  1.4272977265170189e-04 -5.1645434720024373e-05 0.0000000000000000e+00  1.4660446898727062e-04 -5.3727418623738372e-05 0.0000000000000000e+00  1.5039835194341806e-04 -5.5760894479652017e-05 0.0000000000000000e+00  1.5412259239467387e-04 -5.7757163374991822e-05 0.0000000000000000e+00  1.5778765223838074e-04 -5.9725600830126267e-05 0.0000000000000000e+00  1.6140329948767152e-04 -6.1674052338156506e-05 0.0000000000000000e+00  1.6497870788254217e-04 -6.3609084917898472e-05 0.0000000000000000e+00  1.6852250461191277e-04 -6.5536247592643129e-05 0.0000000000000000e+00  1.7204285272754446e-04 -6.7460252366256319e-05 0.0000000000000000e+00  1.7554750781000909e-04 -6.9385137578454760e-05 0.0000000000000000e+00  1.7904388719580083e-04 -7.1314400753563081e-05 0.0000000000000000e+00  1.8253912020130308e-04 -7.3251096234530877e-05 0.0000000000000000e+00  1.8604012202563073e-04 -7.5197910815957627e-05 0.0000000000000000e+00  1.8955363030473952e-04 -7.7157281065433589e-05 0.0000000000000000e+00  1.9308627044475592e-04 -7.9131411611717202e-05 0.0000000000000000e+00  1.9664454146282921e-04 -8.1122379157760527e-05 0.0000000000000000e+00  2.0023482797186919e-04 -8.3132106105095890e-05 0.0000000000000000e+00  2.0386320232197651e-04 -8.5162482748193561e-05 0.0000000000000000e+00  2.0753463838059136e-04 -8.7215266940487548e-05 0.0000000000000000e+00  2.1124824806364868e-04 -8.9293865612899149e-05 0.0000000000000000e+00  2.1502210030658245e-04 -9.1404095816250626e-05 0.0000000000000000e+00  2.1887628231001096e-04 -9.3547201068712953e-05 0.0000000000000000e+00  2.2282632524431710e-04 -9.5724525494958780e-05 0.0000000000000000e+00  2.2688744547369303e-04 -9.7937305071111271e-05 0.0000000000000000e+00  2.3107571347348075e-04 -1.0018705459006514e-04 0.0000000000000000e+00  2.3540876392299105e-04 -1.0247529315507501e-04 0.0000000000000000e+00  2.3990666935867218e-04 -1.0480360245408444e-04 0.0000000000000000e+00  2.4459283900818407e-04 -1.0717355688715366e-04 0.0000000000000000e+00  2.4949521695137713e-04 -1.0958662328652693e-04 0.0000000000000000e+00  2.5455058816914179e-04 -1.1199834008197019e-04 0.0000000000000000e+00  2.5875319326269455e-04 -1.1393975624810272e-04 0.0000000000000000e+00  2.6269593492041611e-04 -1.1570546819189441e-04 0.0000000000000000e+00  2.6696223570585526e-04 -1.1755186466389399e-04 0.0000000000000000e+00  2.7161303688370478e-04 -1.1948447126997249e-04 0.0000000000000000e+00  2.7673017743187338e-04 -1.2150816957682408e-04 0.0000000000000000e+00  2.8242858221637319e-04 -1.2362745625606514e-04 0.0000000000000000e+00  2.8887945188013414e-04 -1.2584346779279245e-04 0.0000000000000000e+00  2.9636475687404924e-04 -1.2815083627876564e-04 0.0000000000000000e+00  3.0542167755037898e-04 -1.3053154632980572e-04 0.0000000000000000e+00  3.1729997446020187e-04 -1.3287351600269846e-04 0.0000000000000000e+00  3.7391774595263737e-04 -1.3057918696924016e-04 0.0000000000000000e+00  3.8604424371940983e-04 -1.2717051298708805e-04 0.0000000000000000e+00  3.9527983908139362e-04 -1.2398066681469652e-04 0.0000000000000000e+00  4.0289151614010814e-04 -1.2100643849213411e-04 0.0000000000000000e+00  4.0942604629931405e-04 -1.1821522469230017e-04 0.0000000000000000e+00  4.1517373404562904e-04 -1.1558761939527113e-04 0.0000000000000000e+00  4.2031176366334278e-04 -1.1310745246359159e-04 0.0000000000000000e+00  4.2495955054150429e-04 -1.1076006925783523e-04 0.0000000000000000e+00  4.2920249055827673e-04 -1.0853332946213018e-04 0.0000000000000000e+00  4.3310433522468088e-04 -1.0641628215966895e-04 0.0000000000000000e+00  4.3724100919241598e-04 -1.0410057755649625e-04 0.0000000000000000e+00  4.4218354813842849e-04 -1.0123893276591050e-04 0.0000000000000000e+00  4.4693794379607494e-04 -9.8389898255412430e-05 0.0000000000000000e+00  4.5144343571556714e-04 -9.5603535562968484e-05 0.0000000000000000e+00  4.5572826443843900e-04 -9.2875862851010051e-05 0.0000000000000000e+00  4.5981582818111567e-04 -9.0203210023978125e-05 0.0000000000000000e+00  4.6372590424512106e-04 -8.7582233850919412e-05 0.0000000000000000e+00  4.6747561516096163e-04 -8.5009872165542775e-05 0.0000000000000000e+00  4.7108021662667100e-04 -8.2483365545424039e-05 0.0000000000000000e+00  4.7455391049353382e-04 -8.0000260452098792e-05 0.0000000000000000e+00  4.7791099034105066e-04 -7.7558277601095084e-05 0.0000000000000000e+00  4.8117004087781405e-04 -7.5155324411824181e-05 0.0000000000000000e+00  4.8434737464298573e-04 -7.2784827084238716e-05 0.0000000000000000e+00  4.8744007531772900e-04 -7.0442767878187685e-05 0.0000000000000000e+00  4.9045091684353525e-04 -6.8126898096183337e-05 0.0000000000000000e+00  4.9338335289207506e-04 -6.5834957125080344e-05 0.0000000000000000e+00  4.9624086883621804e-04 -6.3564758651483204e-05 0.0000000000000000e+00  4.9902673191773981e-04 -6.1314146523185881e-05 0.0000000000000000e+00  5.0174393886102064e-04 -5.9081038536220844e-05 0.0000000000000000e+00  5.0439519007974300e-04 -5.6863237118159981e-05 0.0000000000000000e+00  5.0698291406092862e-04 -5.4658594852640064e-05 0.0000000000000000e+00  5.0950925002883510e-04 -5.2464879654753848e-05 0.0000000000000000e+00  5.1197606674162062e-04 -5.0279744873556570e-05 0.0000000000000000e+00  5.1438497002733851e-04 -4.8100727737992193e-05 0.0000000000000000e+00  5.1673731235131329e-04 -4.5925192772125213e-05 0.0000000000000000e+00  5.1903416696232258e-04 -4.3750302049632132e-05 0.0000000000000000e+00  5.2127632921773368e-04 -4.1572940322298929e-05 0.0000000000000000e+00  5.2346430259659206e-04 -3.9389676290274892e-05 0.0000000000000000e+00  5.2559825888555455e-04 -3.7196684930261732e-05 0.0000000000000000e+00  5.2767800987002414e-04 -3.4989658477890771e-05 0.0000000000000000e+00  5.2970294879055605e-04 -3.2763685695799238e-05 0.0000000000000000e+00  5.3167198885404037e-04 -3.0513164952826664e-05 0.0000000000000000e+00  5.3358347745325436e-04 -2.8231552073472300e-05 0.0000000000000000e+00  5.3543508364845157e-04 -2.5911202552265467e-05 0.0000000000000000e+00  5.3722364491740158e-04 -2.3542982513122851e-05 0.0000000000000000e+00  5.3894502102987769e-04 -2.1115842706426596e-05 0.0000000000000000e+00  5.4059382717963405e-04 -1.8616102795218558e-05 0.0000000000000000e+00  5.4216312390272881e-04 -1.6026326900412151e-05 0.0000000000000000e+00  5.4364407437848701e-04 -1.3323337167623300e-05 0.0000000000000000e+00  5.4502526477660329e-04 -1.0474262102993065e-05 0.0000000000000000e+00  5.4629227722079740e-04 -7.4273678594208422e-06 0.0000000000000000e+00  5.4742504202379182e-04 -4.0864727417100879e-06 0.0000000000000000e+00  5.5031893801223814e-04 0.0000000000000000e+00 0.0000000000000000e+00  5.5182166539056749e-04 0.0000000000000000e+00 0.0000000000000000e+00  5.5308307007863626e-04 0.0000000000000000e+00 0.0000000000000000e+00  5.5413649160014459e-04 0.0000000000000000e+00 0.0000000000000000e+00  5.5500043427408646e-04 0.0000000000000000e+00 0.0000000000000000e+00  5.5569305064850721e-04 0.0000000000000000e+00 0.0000000000000000e+00  5.5623531615711988e-04 0.0000000000000000e+00 0.0000000000000000e+00  5.5665141520290474e-04 0.0000000000000000e+00 0.0000000000000000e+00  5.5696842795443971e-04 0.0000000000000000e+00 0.0000000000000000e+00  5.5721555035788384e-04 0.0000000000000000e+00 0.0000000000000000e+00  5.5742318627439297e-04 0.0000000000000000e+00 0.0000000000000000e+00  5.5762203508910330e-04 0.0000000000000000e+00 0.0000000000000000e+00  5.5784220077250519e-04 0.0000000000000000e+00 0.0000000000000000e+00  5.5811244380323942e-04 0.0000000000000000e+00 0.0000000000000000e+00  5.5845953948041745e-04 0.0000000000000000e+00 0.0000000000000000e+00  5.5890777559979607e-04 0.0000000000000000e+00 0.0000000000000000e+00  5.5947858306486546e-04 0.0000000000000000e+00 0.0000000000000000e+00  5.6019029422228652e-04 0.0000000000000000e+00 0.0000000000000000e+00  5.6105801251189844e-04 0.0000000000000000e+00 0.0000000000000000e+00  5.6209357902044384e-04 0.0000000000000000e+00 0.0000000000000000e+00  5.6330562466668248e-04 0.0000000000000000e+00 0.0000000000000000e+00  5.6469968941043845e-04 0.0000000000000000e+00 0.0000000000000000e+00  5.6627840026779723e-04 0.0000000000000000e+00 0.0000000000000000e+00  5.6804170048544160e-04 0.0000000000000000e+00 0.0000000000000000e+00  5.6998710627515436e-04 0.0000000000000000e+00 0.0000000000000000e+00  5.7211000007442627e-04 0.0000000000000000e+00 0.0000000000000000e+00  5.7440396368537837e-04 0.0000000000000000e+00 0.0000000000000000e+00  5.7686110190796299e-04 0.0000000000000000e+00 0.0000000000000000e+00  5.7947239383117626e-04 0.0000000000000000e+00 0.0000000000000000e+00  5.8222802930065702e-04 0.0000000000000000e+00 0.0000000000000000e+00  5.8511773488434014e-04 0.0000000000000000e+00 0.0000000000000000e+00  5.8813107238511741e-04 0.0000000000000000e+00 0.0000000000000000e+00  5.9125772183008852e-04 0.0000000000000000e+00 0.0000000000000000e+00  5.9448763624571008e-04 0.0000000000000000e+00 0.0000000000000000e+00  5.9781122962915853e-04 0.0000000000000000e+00 0.0000000000000000e+00  6.0121941473750059e-04 0.0000000000000000e+00 0.0000000000000000e+00  6.0470361576226892e-04 0.0000000000000000e+00 0.0000000000000000e+00  6.0825566665583940e-04 0.0000000000000000e+00 0.0000000000000000e+00  6.1186764237683552e-04 0.0000000000000000e+00 0.0000000000000000e+00  6.1553163982249642e-04 0.0000000000000000e+00 0.0000000000000000e+00  6.1923950195028326e-04 0.0000000000000000e+00 0.0000000000000000e+00  6.2298249458685347e-04 0.0000000000000000e+00 0.0000000000000000e+00  6.2675098630699747e-04 0.0000000000000000e+00 0.0000000000000000e+00  6.3049180348379627e-04 0.0000000000000000e+00 0.0000000000000000e+00  6.3408426980355952e-04 0.0000000000000000e+00 0.0000000000000000e+00  6.3752237490529676e-04 0.0000000000000000e+00 0.0000000000000000e+00  6.4080663941990966e-04 0.0000000000000000e+00 0.0000000000000000e+00  6.4393744817661466e-04 0.0000000000000000e+00 0.0000000000000000e+00  6.4691508311387621e-04 0.0000000000000000e+00 0.0000000000000000e+00  6.4973976342949289e-04 0.0000000000000000e+00 0.0000000000000000e+00  6.5241169561836693e-04 0.0000000000000000e+00 0.0000000000000000e+00  6.5493113337322141e-04 0.0000000000000000e+00 0.0000000000000000e+00  6.5729845158241670e-04 0.0000000000000000e+00 0.0000000000000000e+00  6.5951423970018314e-04 0.0000000000000000e+00 0.0000000000000000e+00  6.6157941842687857e-04 0.0000000000000000e+00 0.0000000000000000e+00  6.6349537873067156e-04 0.0000000000000000e+00 0.0000000000000000e+00  6.6526413177063124e-04 0.0000000000000000e+00 0.0000000000000000e+00  6.6688843967464026e-04 0.0000000000000000e+00 0.0000000000000000e+00  6.6837186825615606e-04 0.0000000000000000e+00 0.0000000000000000e+00  6.6971866470006140e-04 0.0000000000000000e+00 0.0000000000000000e+00  6.7093332589893899e-04 0.0000000000000000e+00 0.0000000000000000e+00  6.7201971246211658e-04 0.0000000000000000e+00 0.0000000000000000e+00  6.7297962551777070e-04 0.0000000000000000e+00 0.0000000000000000e+00  6.7381086603225063e-04 0.0000000000000000e+00 0.0000000000000000e+00  6.7450487261544369e-04 0.0000000000000000e+00 0.0000000000000000e+00  6.7504212747050165e-04 0.0000000000000000e+00 0.0000000000000000e+00  6.7537121484259090e-04 0.0000000000000000e+00 0.0000000000000000e+00  6.7260028252761814e-04 1.8305257932530172e-06 0.0000000000000000e+00  6.7048183963904428e-04 2.3203367280179875e-06 0.0000000000000000e+00  6.6874665107429280e-04 2.4214888415850254e-06 0.0000000000000000e+00  6.6732598965985469e-04 2.3844610155928180e-06 0.0000000000000000e+00  6.6608916452543378e-04 1.1249174327277086e-06 0.0000000000000000e+00  6.6612258390691403e-04 3.5305324861235157e-08 0.0000000000000000e+00  6.6605065279994047e-04 -8.1885715995141920e-07 0.0000000000000000e+00  6.6578849160920804e-04 -1.4711786379674771e-06 0.0000000000000000e+00  6.6530475132972112e-04 -1.9864033045456119e-06 0.0000000000000000e+00  6.6459902896323110e-04 -2.4203299191299655e-06 0.0000000000000000e+00  6.6368320941988972e-04 -2.8116010050611529e-06 0.0000000000000000e+00  6.6257146203770273e-04 -3.1837731073648047e-06 0.0000000000000000e+00  6.6127619573467709e-04 -3.5499329933547021e-06 0.0000000000000000e+00  6.5980692461069951e-04 -3.9165995052212968e-06 0.0000000000000000e+00  6.5817038601950154e-04 -4.28648167