<?xml version="1.0"?>
<VTKFile type="UnstructuredGrid"  version="0.1"  >
<UnstructuredGrid>
<Piece  NumberOfPoints="4429" NumberOfCells="8359">
<Points>
<DataArray  type="Float64"  NumberOfComponents="3"  format="ascii">-10 0 0  -1 0 0  0.951 0 0  1 0.9800000000000001 0  1.049 0 0  10 0 0  10 1 0  -10 1 0  -9.802554013089141 0 0  -9.605108026178284 0 0  -9.407662039267425 0 0  -9.210216052356566 0 0  -9.012770065445709 0 0  -8.81532407853485 0 0  -8.617878091623993 0 0  -8.420432104713134 0 0  -8.222986117802275 0 0  -8.025540130891416 0 0  -7.828094143980559 0 0  -7.6306481570697 0 0  -7.433202170158843 0 0  -7.235756183247984 0 0  -7.038310196337125 0 0  -6.840864209426267 0 0  -6.643418222515409 0 0  -6.44597223560455 0 0  -6.248526248693692 0 0  -6.051080261782834 0 0  -5.853634274871975 0 0  -5.656188287961117 0 0  -5.45874230104978 0 0  -5.261296314137045 0 0  -5.063850327224237 0 0  -4.86640434031143 0 0  -4.668958353398622 0 0  -4.471512366485814 0 0  -4.274066379573007 0 0  -4.076620392660199 0 0  -3.879174405747391 0 0  -3.681728418834583 0 0  -3.484282431921778 0 0  -3.286836445008971 0 0  -3.089528835888936 0 0  -2.897893450675969 0 0  -2.714518366963274 0 0  -2.539024380791295 0 0  -2.371048507534689 0 0  -2.210243239427245 0 0  -2.056275677508049 0 0  -1.908827055995062 0 0  -1.767591993288077 0 0  -1.632277788586958 0 0  -1.50260382528746 0 0  -1.378301182712709 0 0  -1.259812533161861 0 0  -1.16651871091986 0 0  -1.099933785278184 0 0  -1.049361496727714 0 0  -0.9512250000000945 0 0  -0.9024500000001888 0 0  -0.8536750000002703 0 0  -0.8049000000003343 0 0  -0.7561250000003854 0 0  -0.7073500000005102 0 0  -0.6585750000006696 0 0  -0.6098000000008421 0 0  -0.5610250000010188 0 0  -0.5122500000011175 0 0  -0.4634750000012813 0 0  -0.4147000000014364 0 0  -0.3659250000015307 0 0  -0.317150000001664 0 0  -0.2683750000018279 0 0  -0.2196000000019915 0 0  -0.1708250000021251 0 0  -0.1220500000022198 0 0  -0.07327500000237508 0 0  -0.0245000000025174 0 0  0.02427499999759219 0 0  0.07304999999769768 0 0  0.1218249999978809 0 0  0.1705999999980294 0 0  0.2193749999981609 0 0  0.2681499999982573 0 0  0.3169249999983539 0 0  0.3656999999985115 0 0  0.4144749999986339 0 0  0.4632499999987305 0 0  0.5120249999988271 0 0  0.5607999999989499 0 0  0.6095749999991071 0 0  0.6583499999992035 0 0  0.7071249999993001 0 0  0.7558999999994316 0 0  0.8046749999995799 0 0  0.8534499999997636 0 0  0.9022249999998688 0 0  0.9534195301692833 0.04839060338566614 0  0.9557313150398183 0.09462630079636727 0  0.9579401213501951 0.1388024270039022 0  0.9600505356343685 0.1810107126873709 0  0.9620669416035847 0.2213388320716948 0  0.9639935261455963 0.2598705229119266 0  0.9658342909049046 0.2966858180980914 0  0.9675930582888272 0.3318611657765465 0  0.9692734807072674 0.3654696141453479 0  0.9708790489119635 0.3975809782392717 0  0.9724130971177726 0.4282619423554529 0  0.973878810573404 0.4575762114680805 0  0.9752792335335838 0.4855846706716769 0  0.9766172743970408 0.5123454879408161 0  0.9778957120023357 0.5379142400467136 0  0.9791172014812847 0.5623440296256942 0  0.9802842795243265 0.5856855904865308 0  0.9813993697819932 0.6079873956398633 0  0.9824647881812603 0.6292957636252047 0  0.9834827473671146 0.6496549473422935 0  0.9844553614708645 0.6691072294172915 0  0.9853846501654914 0.6876930033098272 0  0.9862725438436993 0.7054508768739872 0  0.9871208858079471 0.7224177161589416 0  0.9879314382856762 0.7386287657135238 0  0.9887058848173153 0.7541176963463054 0  0.989445833408641 0.768916668172821 0  0.9901528207521603 0.7830564150432057 0  0.9908283152976436 0.796566305952871 0  0.9914737198559102 0.8094743971182031 0  0.9920903746852821 0.8218074937056415 0  0.9926795605596579 0.833591211193157 0  0.9932425010354499 0.8448500207089967 0  0.9937803652582449 0.855607305164897 0  0.994294270253818 0.8658854050763608 0  0.9947852832050572 0.875705664101145 0  0.9952544239573586 0.8850884791471731 0  0.9957026667727091 0.894053335454182 0  0.9961309424475169 0.9026188489503381 0  0.9965401406125378 0.9108028122507564 0  0.9969311109319927 0.9186222186398537 0  0.9972979395948884 0.925958791897769 0  0.9975771231727073 0.9315424634541464 0  0.9978194108554368 0.9363882171087362 0  0.9980616985381663 0.9412339707633259 0  0.9983039862208958 0.9460797244179155 0  0.9985462739036253 0.9509254780725053 0  0.9987885615863548 0.9557712317270949 0  0.9990308492690837 0.9606169853816745 0  0.9992731369518125 0.9654627390362505 0  0.9995154246345413 0.9703084926908265 0  0.9997577123172705 0.9751542463454104 0  1.000242287619088 0.9751542476182306 0  1.000484575238177 0.9703084952364674 0  1.000726862857264 0.965462742854713 0  1.000969150476352 0.9606169904729586 0  1.00121143809544 0.9557712380912038 0  1.001453725714528 0.950925485709448 0  1.001696013333615 0.9460797333276921 0  1.001938300952703 0.9412339809459365 0  1.002180588571791 0.936388228564182 0  1.002422876190879 0.9315424761824276 0  1.00270205945637 0.9259588108725986 0  1.003068887863367 0.9186222427326546 0  1.003459858021939 0.9108028395612165 0  1.003869056013262 0.9026188797347627 0  1.004297331501342 0.8940533699731672 0  1.004745574115717 0.8850885176856599 0  1.005214714652044 0.875705706959109 0  1.005705727371559 0.8658854525688139 0  1.006219632118225 0.8556073576354919 0  1.006757496074071 0.8448500785185744 0  1.007320436264013 0.833591274719732 0  1.007909621831992 0.8218075633601594 0  1.008526276333453 0.8094744733309421 0  1.009171680540469 0.7965663891906228 0  1.009847174710288 0.7830565057942385 0  1.010554161652656 0.7689167669468788 0  1.011294109814336 0.7541178037132724 0  1.012068555888051 0.7386288822389881 0  1.012879107875333 0.7224178424933334 0  1.013727449316774 0.7054510136645085 0  1.014615342438527 0.6876931512294584 0  1.01554463053947 0.6691073892106065 0  1.01651724400844 0.6496551198311912 0  1.017535202519137 0.629295949617259 0  1.018600620198858 0.6079875960228308 0  1.019715709688296 0.5856858062340813 0  1.02088278691514 0.5623442616971894 0  1.022104275525486 0.5379144894902816 0  1.023382712205046 0.5123457558990858 0  1.024720752086354 0.4855849582729159 0  1.026121173997244 0.4575765200551124 0  1.027586886339869 0.4282622732026142 0  1.02912093336219 0.3975813327562022 0  1.030726500310445 0.3654699937910973 0  1.032406921395411 0.3318615720917728 0  1.034165687359663 0.296686252806729 0  1.036006450610098 0.2598709877980429 0  1.037933033551025 0.2213393289794967 0  1.039949437816924 0.1810112436615241 0  1.04205985029927 0.1388029940146095 0  1.044268654691694 0.09462690616611025 0  1.046580437531734 0.04839124936531258 0  1.098439421387664 0 0  1.148103552769193 0 0  1.198105555878785 0 0  1.248559122676157 0 0  1.299578651341825 0 0  1.351279450480086 0 0  1.403777904425636 0 0  1.457191707733333 0 0  1.511640084378326 0 0  1.567243981386274 0 0  1.624126303291478 0 0  1.682412230251265 0 0  1.742229280083145 0 0  1.80370777842879 0 0  1.866981029746545 0 0  1.932185710688531 0 0  1.999461932701801 0 0  2.068953737772842 0 0  2.140809380592333 0 0  2.215181558535948 0 0  2.292227858549881 0 0  2.372111030122798 0 0  2.454999386142974 0 0  2.5410670888315 0 0  2.630494645599965 0 0  2.72346916867339 0 0  2.820184892935815 0 0  2.920843526261836 0 0  3.025654662648199 0 0  3.134836313434699 0 0  3.248615300595183 0 0  3.367227746767349 0 0  3.490919593349961 0 0  3.619947114350479 0 0  3.75457746218307 0 0  3.895089184147874 0 0  4.041772823570629 0 0  4.194931675765645 0 0  4.354882125594311 0 0  4.52195452443382 0 0  4.696493834771779 0 0  4.8788603474221 0 0  5.069430426740322 0 0  5.266323491503023 0 0  5.463560012690424 0 0  5.660796533877221 0 0  5.858033055064668 0 0  6.055269576252114 0 0  6.252506097439559 0 0  6.449742618627006 0 0  6.646979139814452 0 0  6.844215661001897 0 0  7.041452182189342 0 0  7.238688703376265 0 0  7.435925224563542 0 0  7.633161745750987 0 0  7.830398266938433 0 0  8.027634788125878 0 0  8.224871309313325 0 0  8.422107830500771 0 0  8.619344351688218 0 0  8.816580872875663 0 0  9.013817394063109 0 0  9.211053915250554 0 0  9.408290436438 0 0  9.60552695762545 0 0  9.802763478812901 0 0  10 0.1999999999995579 0  10 0.3999999999989749 0  10 0.5999999999989468 0  10 0.7999999999994734 0  9.800141670215817 1 0  9.600283340431632 1 0  9.400425010647449 1 0  9.200566680863266 1 0  9.000708351079084 1 0  8.800850021294899 1 0  8.600991691510716 1 0  8.401133361726533 1 0  8.201275031942348 1 0  8.001416702158165 1 0  7.801558372373982 1 0  7.60170004258986 1 0  7.401841712806116 1 0  7.201983383022755 1 0  7.002125053239459 1 0  6.802266723456164 1 0  6.602408393672867 1 0  6.402550063889572 1 0  6.202691734106276 1 0  6.002833404322979 1 0  5.802975074539684 1 0  5.603116744756388 1 0  5.403258414973092 1 0  5.203548616019166 1 0  5.009826402900735 1 0  4.824811261014097 1 0  4.648111726293367 1 0  4.479354103391845 1 0  4.318181394505415 1 0  4.16425264304353 1 0  4.017242335019464 1 0  3.876839474307742 1 0  3.742747062562249 1 0  3.614681474842111 1 0  3.492371794093467 1 0  3.375559339559234 1 0  3.263996986754614 1 0  3.157448767448919 1 0  3.055689319319789 1 0  2.958503364349493 1 0  2.865685347283568 1 0  2.777038932416495 1 0  2.692376617150983 1 0  2.611519307609105 1 0  2.534295946686925 1 0  2.460543223248667 1 0  2.390105112366604 1 0  2.322832628695833 1 0  2.258583452175685 1 0  2.197221695741291 1 0  2.138617552030039 1 0  2.082647059205139 1 0  2.029191813154845 1 0  1.978138739645086 1 0  1.929379860549648 1 0  1.882812020447231 1 0  1.838336702398948 1 0  1.795859844321475 1 0  1.755291572633034 1 0  1.716546067368407 1 0  1.679541373577925 1 0  1.644199209442496 1 0  1.610444796059657 1 0  1.578206725703859 1 0  1.547416796430486 1 0  1.518009862327384 1 0  1.489923699426647 1 0  1.463098881543928 1 0  1.437478643823194 1 0  1.413008768537219 1 0  1.38963746513442 1 0  1.367315269512696 1 0  1.34599492329577 1 0  1.325631292087664 1 0  1.306181240973887 1 0  
[...]
<PointData  Tensors="f_7484"> 
<DataArray  type="Float64"  Name="f_7484"  NumberOfComponents="9" format="ascii">3.7131570621760771e-04 -4.2679138062811040e-02 0.0000000000000000e+00 -4.2679138062811040e-02 -1.4725461147872954e-01 0.0000000000000000e+00 0.0000000000000000e+00 0.0000000000000000e+00 0.0000000000000000e+00  -1.5994374037133214e+00 1.9505266721009040e-01 0.0000000000000000e+00 1.9505266721009040e-01 3.8676990201931766e-01 0.0000000000000000e+00 0.0000000000000000e+00 0.0000000000000000e+00 0.0000000000000000e+00  -4.9341323211493759e-02 2.1892474983451801e-01 0.0000000000000000e+00 2.1892474983451801e-01 -3.9564518653719638e+00 0.0000000000000000e+00 0.0000000000000000e+00 0.0000000000000000e+00 0.0000000000000000e+00  6.5024329921048391e+01 -1.2193845342153940e+01 0.0000000000000000e+00 -1.2193845342153940e+01 3.5599291728934098e+01 0.0000000000000000e+00 0.0000000000000000e+00 0.0000000000000000e+00 0.0000000000000000e+00  8.5981424084073083e-02 9.2794453037827948e-03 0.0000000000000000e+00 9.2794453037827948e-03 -1.2125865028486620e+00 0.0000000000000000e+00 0.0000000000000000e+00 0.0000000000000000e+00 0.0000000000000000e+00  -3.8032393955480550e-04 -4.2676847145870091e-02 0.0000000000000000e+00 -4.2676847145870091e-02 1.4731609547657473e-01 0.0000000000000000e+00 0.0000000000000000e+00 0.0000000000000000e+00 0.0000000000000000e+00  1.8510107415072258e-04 -3.2617455925924350e-04 0.0000000000000000e+00 -3.2617455925924350e-04 4.3424735532505277e-04 0.0000000000000000e+00 0.0000000000000000e+00 0.0000000000000000e+00 0.0000000000000000e+00  -4.2413651215879512e-04 -4.1607677102497963e-04 0.0000000000000000e+00 -4.1607677102497963e-04 8.6491598529744358e-05 0.0000000000000000e+00 0.0000000000000000e+00 0.0000000000000000e+00 0.0000000000000000e+00  -3.3064385250862187e-02 -4.9011796141698268e-02 0.0000000000000000e+00 -4.9011796141698268e-02 -4.1940516466700647e-02 0.0000000000000000e+00 0.0000000000000000e+00 0.0000000000000000e+00 0.0000000000000000e+00  -3.6149244911531937e-02 -4.8790304361908267e-02 0.0000000000000000e+00 -4.8790304361908267e-02 -1.7215293901308052e-02 0.0000000000000000e+00 0.0000000000000000e+00 0.0000000000000000e+00 0.0000000000000000e+00  -4.2532418216128742e-02 -4.9004623857987907e-02 0.0000000000000000e+00 -4.9004623857987907e-02 -6.5718715722817749e-03 0.0000000000000000e+00 0.0000000000000000e+00 0.0000000000000000e+00 0.0000000000000000e+00  -4.9037099591568059e-02 -4.9014092779733523e-02 0.0000000000000000e+00 -4.9014092779733523e-02 -1.1719896293882557e-03 0.0000000000000000e+00 0.0000000000000000e+00 0.0000000000000000e+00 0.0000000000000000e+00  -5.6109213975059441e-02 -4.9015526289319954e-02 0.0000000000000000e+00 -4.9015526289319954e-02 1.4036646667555939e-03 0.0000000000000000e+00 0.0000000000000000e+00 0.0000000000000000e+00 0.0000000000000000e+00  -6.3648538149835759e-02 -4.9014876402586768e-02 0.0000000000000000e+00 -4.9014876402586768e-02 2.3971675254588621e-03 0.0000000000000000e+00 0.0000000000000000e+00 0.0000000000000000e+00 0.0000000000000000e+00  -7.1630215143112644e-02 -4.9015079816622217e-02 0.0000000000000000e+00 -4.9015079816622217e-02 2.5200888936949225e-03 0.0000000000000000e+00 0.0000000000000000e+00 0.0000000000000000e+00 0.0000000000000000e+00  -8.0018280147468174e-02 -4.9015288575534305e-02 0.0000000000000000e+00 -4.9015288575534305e-02 2.2214481313263443e-03 0.0000000000000000e+00 0.0000000000000000e+00 0.0000000000000000e+00 0.0000000000000000e+00  -8.8758943395571818e-02 -4.9015415724803495e-02 0.0000000000000000e+00 -4.9015415724803495e-02 1.7710698901816802e-03 0.0000000000000000e+00 0.0000000000000000e+00 0.0000000000000000e+00 0.0000000000000000e+00  -9.7786095139039589e-02 -4.9015458936730150e-02 0.0000000000000000e+00 -4.9015458936730150e-02 1.3159045145560710e-03 0.0000000000000000e+00 0.0000000000000000e+00 0.0000000000000000e+00 0.0000000000000000e+00  -1.0703234035074771e-01 -4.9015445192738739e-02 0.0000000000000000e+00 -4.9015445192738739e-02 9.2396474791019438e-04 0.0000000000000000e+00 0.0000000000000000e+00 0.0000000000000000e+00 0.0000000000000000e+00  -1.1643729069832849e-01 -4.9015402678572940e-02 0.0000000000000000e+00 -4.9015402678572940e-02 6.1687828941102939e-04 0.0000000000000000e+00 0.0000000000000000e+00 0.0000000000000000e+00 0.0000000000000000e+00  -1.2595162871850576e-01 -4.9015351579976128e-02 0.0000000000000000e+00 -4.9015351579976128e-02 3.9200635855356702e-04 0.0000000000000000e+00 0.0000000000000000e+00 0.0000000000000000e+00 0.0000000000000000e+00  -1.3553783863213228e-01 -4.9015303476783519e-02 0.0000000000000000e+00 -4.9015303476783519e-02 2.3618536647148424e-04 0.0000000000000000e+00 0.0000000000000000e+00 0.0000000000000000e+00 0.0000000000000000e+00  -1.4516899514739362e-01 -4.9015263564449331e-02 0.0000000000000000e+00 -4.9015263564449331e-02 1.3347880342614636e-04 0.0000000000000000e+00 0.0000000000000000e+00 0.0000000000000000e+00 0.0000000000000000e+00  -1.5482673530771573e-01 -4.9015233129574121e-02 0.0000000000000000e+00 -4.9015233129574121e-02 6.9031335642270796e-05 0.0000000000000000e+00 0.0000000000000000e+00 0.0000000000000000e+00 0.0000000000000000e+00  -1.6449911687403396e-01 -4.9015211439808595e-02 0.0000000000000000e+00 -4.9015211439808595e-02 3.0593506985259652e-05 0.0000000000000000e+00 0.0000000000000000e+00 0.0000000000000000e+00 0.0000000000000000e+00  -1.7417871790712353e-01 -4.9015196966944438e-02 0.0000000000000000e+00 -4.9015196966944438e-02 8.7776352749724593e-06 0.0000000000000000e+00 0.0000000000000000e+00 0.0000000000000000e+00 0.0000000000000000e+00  -1.8386110313516327e-01 -4.9015188067447125e-02 0.0000000000000000e+00 -4.9015188067447125e-02 -3.2938626325857270e-06 0.0000000000000000e+00 0.0000000000000000e+00 0.0000000000000000e+00 0.0000000000000000e+00  -1.9354365458960771e-01 -4.9015183260053413e-02 0.0000000000000000e+00 -4.9015183260053413e-02 -1.0565262723692441e-05 0.0000000000000000e+00 0.0000000000000000e+00 0.0000000000000000e+00 0.0000000000000000e+00  -2.0322470455159708e-01 -4.9015181358317499e-02 0.0000000000000000e+00 -4.9015181358317499e-02 -1.6644110176901872e-05 0.0000000000000000e+00 0.0000000000000000e+00 0.0000000000000000e+00 0.0000000000000000e+00  -2.1290289172581472e-01 -4.9015181421202682e-02 0.0000000000000000e+00 -4.9015181421202682e-02 -2.4314172172932833e-05 0.0000000000000000e+00 0.0000000000000000e+00 0.0000000000000000e+00 0.0000000000000000e+00  -2.2257666779401014e-01 -4.9015182614915435e-02 0.0000000000000000e+00 -4.9015182614915435e-02 -3.5907713269125811e-05 0.0000000000000000e+00 0.0000000000000000e+00 0.0000000000000000e+00 0.0000000000000000e+00  -2.3224392515939496e-01 -4.9015214719519758e-02 0.0000000000000000e+00 -4.9015214719519758e-02 -5.3581630979569396e-05 0.0000000000000000e+00 0.0000000000000000e+00 0.0000000000000000e+00 0.0000000000000000e+00  -2.4190158879728560e-01 -4.9015230659144315e-02 0.0000000000000000e+00 -4.9015230659144315e-02 -7.8921264591453645e-05 0.0000000000000000e+00 0.0000000000000000e+00 0.0000000000000000e+00 0.0000000000000000e+00  -2.5154555114242039e-01 -4.9015247715477384e-02 0.0000000000000000e+00 -4.9015247715477384e-02 -1.1286893838930608e-04 0.0000000000000000e+00 0.0000000000000000e+00 0.0000000000000000e+00 0.0000000000000000e+00  -2.6117059257037939e-01 -4.9015261336491707e-02 0.0000000000000000e+00 -4.9015261336491707e-02 -1.5443548936690152e-04 0.0000000000000000e+00 0.0000000000000000e+00 0.0000000000000000e+00 0.0000000000000000e+00  -2.7077084002445279e-01 -4.9015262483908112e-02 0.0000000000000000e+00 -4.9015262483908112e-02 -1.9879607967151775e-04 0.0000000000000000e+00 0.0000000000000000e+00 0.0000000000000000e+00 0.0000000000000000e+00  -2.8034099803227441e-01 -4.9015234439458717e-02 0.0000000000000000e+00 -4.9015234439458717e-02 -2.3401687835971480e-04 0.0000000000000000e+00 0.0000000000000000e+00 0.0000000000000000e+00 0.0000000000000000e+00  -2.8987897518251382e-01 -4.9015145346696251e-02 0.0000000000000000e+00 -4.9015145346696251e-02 -2.3589970520053626e-04 0.0000000000000000e+00 0.0000000000000000e+00 0.0000000000000000e+00 0.0000000000000000e+00  -2.9939084843720248e-01 -4.9014927958634345e-02 0.0000000000000000e+00 -4.9014927958634345e-02 -1.6019652445344845e-04 0.0000000000000000e+00 0.0000000000000000e+00 0.0000000000000000e+00 0.0000000000000000e+00  -3.0889909827564133e-01 -4.9014539718776944e-02 0.0000000000000000e+00 -4.9014539718776944e-02 6.8405653027355613e-05 0.0000000000000000e+00 0.0000000000000000e+00 0.0000000000000000e+00 0.0000000000000000e+00  -3.1845685418658348e-01 -4.9014138012547663e-02 0.0000000000000000e+00 -4.9014138012547663e-02 5.6757292905449948e-04 0.0000000000000000e+00 0.0000000000000000e+00 0.0000000000000000e+00 0.0000000000000000e+00  -3.2817078202332139e-01 -4.9013781029367959e-02 0.0000000000000000e+00 -4.9013781029367959e-02 1.5256262573344237e-03 0.0000000000000000e+00 0.0000000000000000e+00 0.0000000000000000e+00 0.0000000000000000e+00  -3.3822083216353327e-01 -4.9011114611752699e-02 0.0000000000000000e+00 -4.9011114611752699e-02 3.2068146545561785e-03 0.0000000000000000e+00 0.0000000000000000e+00 0.0000000000000000e+00 0.0000000000000000e+00  -3.4861088005776714e-01 -4.9008987407171731e-02 0.0000000000000000e+00 -4.9008987407171731e-02 5.8706367347664415e-03 0.0000000000000000e+00 0.0000000000000000e+00 0.0000000000000000e+00 0.0000000000000000e+00  -3.5953999031411726e-01 -4.9017807206593232e-02 0.0000000000000000e+00 -4.9017807206593232e-02 9.7802237017736680e-03 0.0000000000000000e+00 0.0000000000000000e+00 0.0000000000000000e+00 0.0000000000000000e+00  -3.7154237282684505e-01 -4.9010229447224510e-02 0.0000000000000000e+00 -4.9010229447224510e-02 1.5194279059838906e-02 0.0000000000000000e+00 0.0000000000000000e+00 0.0000000000000000e+00 0.0000000000000000e+00  -3.8510437634572292e-01 -4.9009707747341549e-02 0.0000000000000000e+00 -4.9009707747341549e-02 2.2348251288310778e-02 0.0000000000000000e+00 0.0000000000000000e+00 0.0000000000000000e+00 0.0000000000000000e+00  -4.0091713037370424e-01 -4.9007776528201596e-02 0.0000000000000000e+00 -4.9007776528201596e-02 3.1383467673502592e-02 0.0000000000000000e+00 0.0000000000000000e+00 0.0000000000000000e+00 0.0000000000000000e+00  -4.1977552187749079e-01 -4.9005190517564752e-02 0.0000000000000000e+00 -4.9005190517564752e-02 4.2363156831378215e-02 0.0000000000000000e+00 0.0000000000000000e+00 0.0000000000000000e+00 0.0000000000000000e+00  -4.4267501621441918e-01 -4.9000585445436867e-02 0.0000000000000000e+00 -4.9000585445436867e-02 5.5250481340539864e-02 0.0000000000000000e+00 0.0000000000000000e+00 0.0000000000000000e+00 0.0000000000000000e+00  -4.7094659528308980e-01 -4.8992733540847593e-02 0.0000000000000000e+00 -4.8992733540847593e-02 7.0025299242141403e-02 0.0000000000000000e+00 0.0000000000000000e+00 0.0000000000000000e+00 0.0000000000000000e+00  -5.0649902307402161e-01 -4.8976792478265745e-02 0.0000000000000000e+00 -4.8976792478265745e-02 8.6645331001135681e-02 0.0000000000000000e+00 0.0000000000000000e+00 0.0000000000000000e+00 0.0000000000000000e+00  -5.5236718416366448e-01 -4.8970108071966584e-02 0.0000000000000000e+00 -4.8970108071966584e-02 1.0520146547574769e-01 0.0000000000000000e+00 0.0000000000000000e+00 0.0000000000000000e+00 0.0000000000000000e+00  -6.1390581934719979e-01 -4.8949345927948494e-02 0.0000000000000000e+00 -4.8949345927948494e-02 1.2572224387256362e-01 0.0000000000000000e+00 0.0000000000000000e+00 0.0000000000000000e+00 0.0000000000000000e+00  -7.0147476942600306e-01 -4.8561492955137349e-02 0.0000000000000000e+00 -4.8561492955137349e-02 1.5132616255695486e-01 0.0000000000000000e+00 0.0000000000000000e+00 0.0000000000000000e+00 0.0000000000000000e+00  -8.1156252774173088e-01 -4.8441805089964610e-02 0.0000000000000000e+00 -4.8441805089964610e-02 1.7740639024002869e-01 0.0000000000000000e+00 0.0000000000000000e+00 0.0000000000000000e+00 0.0000000000000000e+00  -9.4394378405099244e-01 -4.8380220580646061e-02 0.0000000000000000e+00 -4.8380220580646061e-02 2.0215708073653343e-01 0.0000000000000000e+00 0.0000000000000000e+00 0.0000000000000000e+00 0.0000000000000000e+00  -1.1101703564173071e+00 -6.6560902086609502e-02 0.0000000000000000e+00 -6.6560902086609502e-02 2.4718395124988904e-01 0.0000000000000000e+00 0.0000000000000000e+00 0.0000000000000000e+00 0.0000000000000000e+00  -1.1230866126398076e+00 4.4828509288490503e-01 0.0000000000000000e+00 4.4828509288490503e-01 2.5001326372970351e-01 0.0000000000000000e+00 0.0000000000000000e+00 0.0000000000000000e+00 0.0000000000000000e+00  -9.2618944963876493e-01 4.5115532663556618e-01 0.0000000000000000e+00 4.5115532663556618e-01 2.1899834765140777e-01 0.0000000000000000e+00 0.0000000000000000e+00 0.0000000000000000e+00 0.0000000000000000e+00  -8.0846565242721324e-01 4.5111062695704057e-01 0.0000000000000000e+00 4.5111062695704057e-01 2.0896293438682256e-01 0.0000000000000000e+00 0.0000000000000000e+00 0.0000000000000000e+00 0.0000000000000000e+00  -7.2295139849290901e-01 4.5087751996221431e-01 0.0000000000000000e+00 4.5087751996221431e-01 2.0237043125226742e-01 0.0000000000000000e+00 0.0000000000000000e+00 0.0000000000000000e+00 0.0000000000000000e+00  -6.5623508929721153e-01 4.5107997898818625e-01 0.0000000000000000e+00 4.5107997898818625e-01 1.9758039909709510e-01 0.0000000000000000e+00 0.0000000000000000e+00 0.0000000000000000e+00 0.0000000000000000e+00  -6.0091757472230067e-01 4.5096413665894985e-01 0.0000000000000000e+00 4.5096413665894985e-01 1.9509540786280691e-01 0.0000000000000000e+00 0.0000000000000000e+00 0.0000000000000000e+00 0.0000000000000000e+00  -5.5427328953399180e-01 4.5100433493246506e-01 0.0000000000000000e+00 4.5100433493246506e-01 1.9377130934021536e-01 0.0000000000000000e+00 0.0000000000000000e+00 0.0000000000000000e+00 0.0000000000000000e+00  -5.1368833450953211e-01 4.5098902844256628e-01 0.0000000000000000e+00 4.5098902844256628e-01 1.9341892191353635e-01 0.0000000000000000e+00 0.0000000000000000e+00 0.0000000000000000e+00 0.0000000000000000e+00  -4.7828334280622276e-01 4.5097996543058072e-01 0.0000000000000000e+00 4.5097996543058072e-01 1.9371547175402984e-01 0.0000000000000000e+00 0.0000000000000000e+00 0.0000000000000000e+00 0.0000000000000000e+00  -4.4705289040453206e-01 4.5098961212018956e-01 0.0000000000000000e+00 4.5098961212018956e-01 1.9456444441483040e-01 0.0000000000000000e+00 0.0000000000000000e+00 0.0000000000000000e+00 0.0000000000000000e+00  -4.1939104454198667e-01 4.5098207850300953e-01 0.0000000000000000e+00 4.5098207850300953e-01 1.9579748192131247e-01 0.0000000000000000e+00 0.0000000000000000e+00 0.0000000000000000e+00 0.0000000000000000e+00  -3.9488247403435489e-01 4.5098627797948643e-01 0.0000000000000000e+00 4.5098627797948643e-01 1.9729905416588520e-01 0.0000000000000000e+00 0.0000000000000000e+00 0.0000000000000000e+00 0.0000000000000000e+00  -3.7322878621413286e-01 4.5098235767243128e-01 0.0000000000000000e+00 4.5098235767243128e-01 1.9890734269193022e-01 0.0000000000000000e+00 0.0000000000000000e+00 0.0000000000000000e+00 0.0000000000000000e+00  -3.5416894925062298e-01 4.5098501141448483e-01 0.0000000000000000e+00 4.5098501141448483e-01 2.0046470518383971e-01 0.0000000000000000e+00 0.0000000000000000e+00 0.0000000000000000e+00 0.0000000000000000e+00  -3.3752824346703120e-01 4.5098431999848382e-01 0.0000000000000000e+00 4.5098431999848382e-01 2.0180628026937028e-01 0.0000000000000000e+00 0.0000000000000000e+00 0.0000000000000000e+00 0.0000000000000000e+00  -3.2315543415292813e-01 4.5098381562161782e-01 0.0000000000000000e+00 4.5098381562161782e-01 2.0271791397821320e-01 0.0000000000000000e+00 0.0000000000000000e+00 0.0000000000000000e+00 0.0000000000000000e+00  -3.1090247202097604e-01 4.5098358658539045e-01 0.0000000000000000e+00 4.5098358658539045e-01 2.0296308439275448e-01 0.0000000000000000e+00 0.0000000000000000e+00 0.0000000000000000e+00 0.0000000000000000e+00  -3.0065032508648948e-01 4.5098352455155344e-01 0.0000000000000000e+00 4.5098352455155344e-01 2.0225651054943097e-01 0.0000000000000000e+00 0.0000000000000000e+00 0.0000000000000000e+00 0.0000000000000000e+00  -2.9225833202574536e-01 4.5098376395114415e-01 0.0000000000000000e+00 4.5098376395114415e-01 2.0027274636890852e-01 0.0000000000000000e+00 0.0000000000000000e+00 0.0000000000000000e+00 0.0000000000000000e+00  -2.8558364603769965e-01 4.5097868566571486e-01 0.0000000000000000e+00 4.5097868566571486e-01 1.9663272323572681e-01 0.0000000000000000e+00 0.0000000000000000e+00 0.0000000000000000e+00 0.0000000000000000e+00  -2.8048647541677268e-01 4.5098359373662872e-01 0.0000000000000000e+00 4.5098359373662872e-01 1.9088282354065178e-01 0.0000000000000000e+00 0.0000000000000000e+00 0.0000000000000000e+00 0.0000000000000000e+00  -2.7675609130563661e-01 4.5098241511109954e-01 0.0000000000000000e+00 4.5098241511109954e-01 1.8253580480964970e-01 0.0000000000000000e+00 0.0000000000000000e+00 0.0000000000000000e+00 0.0000000000000000e+00  -2.7420244343597105e-01 4.5098216626735937e-01 0.0000000000000000e+00 4.5098216626735937e-01 1.7100935970999387e-01 0.0000000000000000e+00 0.0000000000000000e+00 0.0000000000000000e+00 0.0000000000000000e+00  -2.7256258473847567e-01 4.5098099157431976e-01 0.0000000000000000e+00 4.5098099157431976e-01 1.5566645443072924e-01 0.0000000000000000e+00 0.0000000000000000e+00 0.0000000000000000e+00 0.0000000000000000e+00  -2.7158723798468809e-01 4.5098017768220677e-01 0.0000000000000000e+00 4.5098017768220677e-01 1.3577698358939788e-01 0.0000000000000000e+00 0.0000000000000000e+00 0.0000000000000000e+00 0.0000000000000000e+00  -2.7093662300854437e-01 4.5098260352546271e-01 0.0000000000000000e+00 4.5098260352546271e-01 1.1056166785755277e-01 0.0000000000000000e+00 0.0000000000000000e+00 0.0000000000000000e+00 0.0000000000000000e+00  -2.7031584986958473e-01 4.5098170685783506e-01 0.0000000000000000e+00 4.5098170685783506e-01 7.9157853036455561e-02 0.0000000000000000e+00 0.0000000000000000e+00 0.0000000000000000e+00 0.0000000000000000e+00  -2.6938036562503476e-01 4.5098139938706794e-01 0.0000000000000000e+00 4.5098139938706794e-01 4.0623590068529294e-02 0.0000000000000000e+00 0.0000000000000000e+00 0.0000000000000000e+00 0.0000000000000000e+00  -2.6777635570421915e-01 4.5097720175525180e-01 0.0000000000000000e+00 4.5097720175525180e-01 -6.0605776802447461e-03 0.0000000000000000e+00 0.0000000000000000e+00 0.0000000000000000e+00 0.0000000000000000e+00  -2.6529759089009913e-01 4.5096362926090044e-01 0.0000000000000000e+00 4.5096362926090044e-01 -6.1993161618515792e-02 0.0000000000000000e+00 0.0000000000000000e+00 0.0000000000000000e+00 0.0000000000000000e+00  -2.6154278632455402e-01 4.5098447854784757e-01 0.0000000000000000e+00 4.5098447854784757e-01 -1.2831143855011320e-01 0.0000000000000000e+00 0.0000000000000000e+00 0.0000000000000000e+00 0.0000000000000000e+00  -2.5656093874337682e-01 4.5098071327800821e-01 0.0000000000000000e+00 4.5098071327800821e-01 -2.0645401564815316e-01 0.0000000000000000e+00 0.0000000000000000e+00 0.0000000000000000e+00 0.0000000000000000e+00  -2.5033875434684977e-01 4.5098129563731565e-01 0.0000000000000000e+00 4.5098129563731565e-01 -2.9808935541845871e-01 0.0000000000000000e+00 0.0000000000000000e+00 0.0000000000000000e+00 0.0000000000000000e+00  -2.4315245296071900e-01 4.5098286548231464e-01 0.0000000000000000e+00 4.5098286548231464e-01 -4.0580335691080593e-01 0.0000000000000000e+00 0.0000000000000000e+00 0.0000000000000000e+00 0.0000000000000000e+00  -2.3563598350341242e-01 4.5098319191514952e-01 0.0000000000000000e+00 4.5098319191514952e-01 -5.3276541101013564e-01 0.0000000000000000e+00 0.0000000000000000e+00 0.0000000000000000e+00 0.0000000000000000e+00  -2.2847424931906951e-01 4.5095751324162608e-01 0.0000000000000000e+00 4.5095751324162608e-01 -6.8629868216645051e-01 0.0000000000000000e+00 0.0000000000000000e+00 0.0000000000000000e+00 0.0000000000000000e+00  -2.2457633040630437e-01 4.5059132316550771e-01 0.0000000000000000e+00 4.5059132316550771e-01 -8.794975498271