<?xml version="1.0"?>
<VTKFile type="UnstructuredGrid"  version="0.1"  >
<UnstructuredGrid>
<Piece  NumberOfPoints="4500" NumberOfCells="8515">
<Points>
<DataArray  type="Float64"  NumberOfComponents="3"  format="ascii">-10 0 0  -1 0 0  0.988125 0 0  1 0.9500000000000003 0  1.011875 0 0  10 0 0  10 1 0  -10 1 0  -9.802309776351239 0 0  -9.604619552702477 0 0  -9.406929329053716 0 0  -9.209239105404954 0 0  -9.011548881756195 0 0  -8.813858658107433 0 0  -8.616168434458672 0 0  -8.41847821080991 0 0  -8.220787987161149 0 0  -8.023097763512387 0 0  -7.825407539863626 0 0  -7.627717316214865 0 0  -7.430027092566105 0 0  -7.232336868917344 0 0  -7.034646645268582 0 0  -6.836956421619821 0 0  -6.639266197971059 0 0  -6.441575974322298 0 0  -6.243885750673537 0 0  -6.046195527024776 0 0  -5.848505303376014 0 0  -5.650815079727253 0 0  -5.453124856077972 0 0  -5.255434632427317 0 0  -5.057744408776604 0 0  -4.860054185125891 0 0  -4.662363961475178 0 0  -4.464673737824465 0 0  -4.266983514173752 0 0  -4.069293290523039 0 0  -3.871603066872327 0 0  -3.673912843221613 0 0  -3.476222619570901 0 0  -3.278532395920189 0 0  -3.080842172269479 0 0  -2.884404220121649 0 0  -2.695777541322582 0 0  -2.51555880031321 0 0  -2.343347743964339 0 0  -2.178761800751354 0 0  -2.021435288943885 0 0  -1.871018404594906 0 0  -1.727176678894381 0 0  -1.589590126854418 0 0  -1.457952389939075 0 0  -1.331970370472982 0 0  -1.212113087037066 0 0  -1.117955460140685 0 0  -1.05078205711736 0 0  -0.9502968750001128 0 0  -0.9005937500002127 0 0  -0.8508906250003081 0 0  -0.8011875000003472 0 0  -0.7514843750004557 0 0  -0.7017812500005642 0 0  -0.6520781250006034 0 0  -0.6023750000007855 0 0  -0.5526718750008246 0 0  -0.5029687500009548 0 0  -0.4532656250011109 0 0  -0.4035625000012106 0 0  -0.3538593750013062 0 0  -0.3041562500014059 0 0  -0.2544531250015187 0 0  -0.2047500000016315 0 0  -0.1550468750017315 0 0  -0.1053437500018273 0 0  -0.05564062500192735 0 0  -0.005937500002040408 0 0  0.04376562499804648 0 0  0.09346874999806398 0 0  0.1431718749982895 0 0  0.192874999998307 0 0  0.2425781249984373 0 0  0.2922812499985674 0 0  0.3419843749985849 0 0  0.3916874999988105 0 0  0.441390624998828 0 0  0.4910937499989583 0 0  0.5407968749990886 0 0  0.5904999999991061 0 0  0.6402031249993312 0 0  0.6899062499993489 0 0  0.7396093749994792 0 0  0.7893124999996093 0 0  0.8390156249996268 0 0  0.8887187499998523 0 0  0.9384218749998701 0 0  0.9887291682429877 0.04833345943901594 0  0.9893055180968843 0.09444144775073587 0  0.9898553302871406 0.1384264229712453 0  0.9903798267168878 0.1803861373510272 0  0.990880173063487 0.2204138450789569 0  0.9913574813903865 0.2585985112309206 0  0.9918128123045264 0.295024984362114 0  0.992247177758389 0.3297742206711178 0  0.9926615431677073 0.3629234534165827 0  0.9930568294557705 0.3945463564616314 0  0.9934339150450541 0.4247132036043257 0  0.993793637958961 0.4534910367168788 0  0.9941367976828682 0.4809438146294586 0  0.9944641568562967 0.507132548503742 0  0.9947764429516873 0.5321154361349845 0  0.9950743501061448 0.5559480084915756 0  0.9953585402825843 0.5786832226067424 0  0.9956296451162004 0.6003716092960359 0  0.9958882670807506 0.6210613664600533 0  0.9961349810071651 0.6407984805732082 0  0.9963703351791185 0.6596268143294816 0  0.9965948526003295 0.6775882080263651 0  0.9968090322257982 0.6947225780638561 0  0.9970133501238041 0.7110680099043299 0  0.9972082603780119 0.726660830240957 0  0.9973941961063174 0.7415356885053883 0  0.9975715705311384 0.7557256424910759 0  0.997740777887994 0.7692622310395174 0  0.9979021941787155 0.7821755342972373 0  0.9980561781880443 0.7944942550435422 0  0.9982030720885938 0.8062457670875097 0  0.9983432023720592 0.8174561897647348 0  0.9984768804292244 0.8281504343379559 0  0.9986044033825379 0.8383522706030268 0  0.9987260546298081 0.84808437038465 0  0.9988421045211879 0.8573683616950341 0  0.9989528109862031 0.8662248788962521 0  0.9990584200434073 0.8746736034725816 0  0.9991591663955958 0.8827333116476621 0  0.9992552739613997 0.8904219169119738 0  0.9993448622661906 0.8975889812952476 0  0.9994124476406415 0.9029958112513186 0  0.9994712028765772 0.9076962301261747 0  0.9995299581125128 0.912396649001025 0  0.9995887133484486 0.9170970678758876 0  0.9996474685843845 0.9217974867507559 0  0.9997062238203204 0.9264979056256336 0  0.9997649790562564 0.9311983245005114 0  0.9998237342921924 0.935898743375389 0  0.9998824895281283 0.9405991622502669 0  0.9999412447640642 0.9452995811251365 0  1.000058755235936 0.9452995811251388 0  1.000117510471872 0.9405991622502772 0  1.000176265707807 0.9358987433754157 0  1.000235020943743 0.9311983245005655 0  1.000293776179679 0.9264979056257172 0  1.000352531415614 0.9217974867508687 0  1.00041128665155 0.9170970678760109 0  1.000470041887486 0.9123966490011486 0  1.000528797123421 0.9076962301262864 0  1.000587552359357 0.9029958112514297 0  1.000655137733808 0.8975889812954035 0  1.000744726038598 0.8904219169121675 0  1.000840833604401 0.8827333116478824 0  1.00094157995659 0.8746736034728307 0  1.001047189013793 0.8662248788965325 0  1.001157895478808 0.857368361695347 0  1.001273945370188 0.8480843703849877 0  1.001395596617458 0.8383522706033913 0  1.001523119570771 0.8281504343383556 0  1.001656797627935 0.8174561897651961 0  1.001796927911399 0.8062457670880456 0  1.001943821811948 0.7944942550441584 0  1.002097805821276 0.7821755342979364 0  1.002259222111996 0.7692622310402948 0  1.002428429468851 0.7557256424919233 0  1.002605803893671 0.7415356885063085 0  1.002791739621976 0.7266608302419554 0  1.002986649876182 0.7110680099054125 0  1.003190967774187 0.6947225780650272 0  1.003405147399655 0.6775882080276314 0  1.003629664820864 0.65962681433086 0  1.003865018992816 0.6407984805747046 0  1.004111732919229 0.6210613664616683 0  1.004370354883778 0.6003716092977922 0  1.004641459717391 0.578683222608684 0  1.004925649893829 0.5559480084937027 0  1.005223557048284 0.5321154361372686 0  1.005535843143673 0.507132548506202 0  1.005863202317099 0.4809438146321191 0  1.006206362041006 0.4534910367195084 0  1.006566084954915 0.4247132036068334 0  1.0069431705442 0.3945463564640246 0  1.007338456832265 0.3629234534188253 0  1.007752822241585 0.3297742206731956 0  1.00818718769545 0.2950249843640083 0  1.008642518609592 0.2585985112326038 0  1.009119826936495 0.2204138450804143 0  1.009620173283097 0.1803861373522269 0  1.010144669712848 0.1384264229721534 0  1.010694481903108 0.09444144775137242 0  1.011270831757008 0.04833345943934531 0  1.061210821844874 0 0  1.110696517949629 0 0  1.160451855662479 0 0  1.210597763602078 0 0  1.261255830962907 0 0  1.312548526341448 0 0  1.364599413591915 0 0  1.417533395492783 0 0  1.471476905091243 0 0  1.526558237826991 0 0  1.582907743009861 0 0  1.640658152623778 0 0  1.699945026522008 0 0  1.76090593662638 0 0  1.823683025868294 0 0  1.888421252799808 0 0  1.955269532502913 0 0  2.024381045157576 0 0  2.095913555965196 0 0  2.170029825327063 0 0  2.24689788648994 0 0  2.326691510357211 0 0  2.409590593745696 0 0  2.495781578395952 0 0  2.585457894540737 0 0  2.678820340802464 0 0  2.776077631143044 0 0  2.877446859308757 0 0  2.983153927867427 0 0  3.093434141017854 0 0  3.208532695353543 0 0  3.328705266321299 0 0  3.454218539734318 0 0  3.585350923691883 0 0  3.722392918373979 0 0  3.865648058136488 0 0  4.015433601688075 0 0  4.17208083606297 0 0  4.335936303323841 0 0  4.507362263394895 0 0  4.68673769816555 0 0  4.874458941745487 0 0  5.07014547455077 0 0  5.267339655567755 0 0  5.46453383658481 0 0  5.661728017602666 0 0  5.858922198620624 0 0  6.056116379638901 0 0  6.253310560656889 0 0  6.450504741674846 0 0  6.647698922692805 0 0  6.844893103710762 0 0  7.04208728472872 0 0  7.239281465746799 0 0  7.436475646764984 0 0  7.633669827782942 0 0  7.830864008801248 0 0  8.028058189819365 0 0  8.225252370837589 0 0  8.422446551855643 0 0  8.619640732873254 0 0  8.81683491389156 0 0  9.014029094909516 0 0  9.211223275927821 0 0  9.408417456946125 0 0  9.605611637963952 0 0  9.802805818981694 0 0  10 0.1999999999995579 0  10 0.3999999999989749 0  10 0.5999999999989468 0  10 0.7999999999994734 0  9.800575996776031 1 0  9.601151993552062 1 0  9.401727990328094 1 0  9.202303987104125 1 0  9.002879983880156 1 0  8.803455980656187 1 0  8.604031977432218 1 0  8.40460797420825 1 0  8.205183970984281 1 0  8.005759967760312 1 0  7.806335964536344 1 0  7.60691196131243 1 0  7.407487958088888 1 0  7.208063954865734 1 0  7.008639951642651 1 0  6.809215948419568 1 0  6.609791945196485 1 0  6.410367941973401 1 0  6.210943938750319 1 0  6.011519935527235 1 0  5.812095932304152 1 0  5.612671929081069 1 0  5.413247925857986 1 0  5.213823922634902 1 0  5.015243811921192 1 0  4.82435956465779 1 0  4.642328595289649 1 0  4.468740258785571 1 0  4.303202825842178 1 0  4.145342831167929 1 0  3.994804153950566 1 0  3.8512471484775 1 0  3.714347926054283 1 0  3.583797600332654 1 0  3.459301639331763 1 0  3.340579154667353 1 0  3.227362295170822 1 0  3.119395607879967 1 0  3.016435507943106 1 0  2.918249705556917 1 0  2.824616648174518 1 0  2.7353251101607 1 0  2.650173576439188 1 0  2.568969972376384 1 0  2.491531073154755 1 0  2.417682139602779 1 0  2.347256551205183 1 0  2.280095399177634 1 0  2.216047144131189 1 0  2.154967264670362 1 0  2.096717936489315 1 0  2.041167716830921 1 0  1.988191244259683 1 0  1.937668987932621 1 0  1.88948691248514 1 0  1.843536273225745 1 0  1.799713381735112 1 0  1.757919304409434 1 0  1.718059692679169 1 0  1.680044580871252 1 0  1.643788130897317 1 0  1.609208471979626 1 0  1.576227510650078 1 0  1.54477075146224 1 0  1.514767118537957 1 0  1.486148811166045 1 0  1.458851131196843 1 0  1.432812347986726 1 0  1.407973559295883 1 0  1.384278527233327 1 0  1.361673597288288 1 0  1.340107523681787 1 0  1.319531371942366 1 0  1.299898405239752 1 0  1.281163982429543 1 0  1.263285413268653 1 0  1.246221889667353 1 0  1.229934357922094 1 0  1.214385438433801 1 0 
[...]
<PointData  Vectors="f_3239"> 
<DataArray  type="Float64"  Name="f_3239"  NumberOfComponents="3" format="ascii">-1.8402237588217231e+04 0.0000000000000000e+00 0.0000000000000000e+00  -1.8402237679930895e+04 0.0000000000000000e+00 0.0000000000000000e+00  -1.8402237685863562e+04 0.0000000000000000e+00 0.0000000000000000e+00  -1.8402237683488518e+04 3.0358535630961791e-06 0.0000000000000000e+00  -1.8402237714046085e+04 0.0000000000000000e+00 0.0000000000000000e+00  -1.8402237626151626e+04 0.0000000000000000e+00 0.0000000000000000e+00  -1.8402237630675161e+04 1.1803349251005169e-06 0.0000000000000000e+00  -1.8402237592737780e+04 -1.1789205201985165e-06 0.0000000000000000e+00  -1.8402237588087712e+04 0.0000000000000000e+00 0.0000000000000000e+00  -1.8402237588253389e+04 0.0000000000000000e+00 0.0000000000000000e+00  -1.8402237588523647e+04 0.0000000000000000e+00 0.0000000000000000e+00  -1.8402237588872733e+04 0.0000000000000000e+00 0.0000000000000000e+00  -1.8402237589290802e+04 0.0000000000000000e+00 0.0000000000000000e+00  -1.8402237589773657e+04 0.0000000000000000e+00 0.0000000000000000e+00  -1.8402237590320230e+04 0.0000000000000000e+00 0.0000000000000000e+00  -1.8402237590931531e+04 0.0000000000000000e+00 0.0000000000000000e+00  -1.8402237591609541e+04 0.0000000000000000e+00 0.0000000000000000e+00  -1.8402237592356585e+04 0.0000000000000000e+00 0.0000000000000000e+00  -1.8402237593174741e+04 0.0000000000000000e+00 0.0000000000000000e+00  -1.8402237594065784e+04 0.0000000000000000e+00 0.0000000000000000e+00  -1.8402237595031158e+04 0.0000000000000000e+00 0.0000000000000000e+00  -1.8402237596071711e+04 0.0000000000000000e+00 0.0000000000000000e+00  -1.8402237597188196e+04 0.0000000000000000e+00 0.0000000000000000e+00  -1.8402237598381129e+04 0.0000000000000000e+00 0.0000000000000000e+00  -1.8402237599650711e+04 0.0000000000000000e+00 0.0000000000000000e+00  -1.8402237600997189e+04 0.0000000000000000e+00 0.0000000000000000e+00  -1.8402237602420635e+04 0.0000000000000000e+00 0.0000000000000000e+00  -1.8402237603921072e+04 0.0000000000000000e+00 0.0000000000000000e+00  -1.8402237605498485e+04 0.0000000000000000e+00 0.0000000000000000e+00  -1.8402237607152845e+04 0.0000000000000000e+00 0.0000000000000000e+00  -1.8402237608884141e+04 0.0000000000000000e+00 0.0000000000000000e+00  -1.8402237610692271e+04 0.0000000000000000e+00 0.0000000000000000e+00  -1.8402237612577130e+04 0.0000000000000000e+00 0.0000000000000000e+00  -1.8402237614538746e+04 0.0000000000000000e+00 0.0000000000000000e+00  -1.8402237616577033e+04 0.0000000000000000e+00 0.0000000000000000e+00  -1.8402237618691626e+04 0.0000000000000000e+00 0.0000000000000000e+00  -1.8402237620882279e+04 0.0000000000000000e+00 0.0000000000000000e+00  -1.8402237623148863e+04 0.0000000000000000e+00 0.0000000000000000e+00  -1.8402237625491565e+04 0.0000000000000000e+00 0.0000000000000000e+00  -1.8402237627910894e+04 0.0000000000000000e+00 0.0000000000000000e+00  -1.8402237630408141e+04 0.0000000000000000e+00 0.0000000000000000e+00  -1.8402237632985903e+04 0.0000000000000000e+00 0.0000000000000000e+00  -1.8402237635648846e+04 0.0000000000000000e+00 0.0000000000000000e+00  -1.8402237638387582e+04 0.0000000000000000e+00 0.0000000000000000e+00  -1.8402237641116171e+04 0.0000000000000000e+00 0.0000000000000000e+00  -1.8402237643829634e+04 0.0000000000000000e+00 0.0000000000000000e+00  -1.8402237646539943e+04 0.0000000000000000e+00 0.0000000000000000e+00  -1.8402237649261951e+04 0.0000000000000000e+00 0.0000000000000000e+00  -1.8402237652013162e+04 0.0000000000000000e+00 0.0000000000000000e+00  -1.8402237654813645e+04 0.0000000000000000e+00 0.0000000000000000e+00  -1.8402237657686728e+04 0.0000000000000000e+00 0.0000000000000000e+00  -1.8402237660661336e+04 0.0000000000000000e+00 0.0000000000000000e+00  -1.8402237663776705e+04 0.0000000000000000e+00 0.0000000000000000e+00  -1.8402237667093141e+04 0.0000000000000000e+00 0.0000000000000000e+00  -1.8402237670694129e+04 0.0000000000000000e+00 0.0000000000000000e+00  -1.8402237674020398e+04 0.0000000000000000e+00 0.0000000000000000e+00  -1.8402237676896235e+04 0.0000000000000000e+00 0.0000000000000000e+00  -1.8402237682920855e+04 0.0000000000000000e+00 0.0000000000000000e+00  -1.8402237685051670e+04 0.0000000000000000e+00 0.0000000000000000e+00  -1.8402237686848643e+04 0.0000000000000000e+00 0.0000000000000000e+00  -1.8402237688419322e+04 0.0000000000000000e+00 0.0000000000000000e+00  -1.8402237689814236e+04 0.0000000000000000e+00 0.0000000000000000e+00  -1.8402237691062761e+04 0.0000000000000000e+00 0.0000000000000000e+00  -1.8402237692183906e+04 0.0000000000000000e+00 0.0000000000000000e+00  -1.8402237693190735e+04 0.0000000000000000e+00 0.0000000000000000e+00  -1.8402237694092793e+04 0.0000000000000000e+00 0.0000000000000000e+00  -1.8402237694897165e+04 0.0000000000000000e+00 0.0000000000000000e+00  -1.8402237695609230e+04 0.0000000000000000e+00 0.0000000000000000e+00  -1.8402237696233253e+04 0.0000000000000000e+00 0.0000000000000000e+00  -1.8402237696772561e+04 0.0000000000000000e+00 0.0000000000000000e+00  -1.8402237697229881e+04 0.0000000000000000e+00 0.0000000000000000e+00  -1.8402237697607361e+04 0.0000000000000000e+00 0.0000000000000000e+00  -1.8402237697906872e+04 0.0000000000000000e+00 0.0000000000000000e+00  -1.8402237698129928e+04 0.0000000000000000e+00 0.0000000000000000e+00  -1.8402237698277997e+04 0.0000000000000000e+00 0.0000000000000000e+00  -1.8402237698352208e+04 0.0000000000000000e+00 0.0000000000000000e+00  -1.8402237698353780e+04 0.0000000000000000e+00 0.0000000000000000e+00  -1.8402237698284109e+04 0.0000000000000000e+00 0.0000000000000000e+00  -1.8402237698144734e+04 0.0000000000000000e+00 0.0000000000000000e+00  -1.8402237697937519e+04 0.0000000000000000e+00 0.0000000000000000e+00  -1.8402237697664459e+04 0.0000000000000000e+00 0.0000000000000000e+00  -1.8402237697328193e+04 0.0000000000000000e+00 0.0000000000000000e+00  -1.8402237696931847e+04 0.0000000000000000e+00 0.0000000000000000e+00  -1.8402237696479086e+04 0.0000000000000000e+00 0.0000000000000000e+00  -1.8402237695974109e+04 0.0000000000000000e+00 0.0000000000000000e+00  -1.8402237695421765e+04 0.0000000000000000e+00 0.0000000000000000e+00  -1.8402237694827098e+04 0.0000000000000000e+00 0.0000000000000000e+00  -1.8402237694195428e+04 0.0000000000000000e+00 0.0000000000000000e+00  -1.8402237693531792e+04 0.0000000000000000e+00 0.0000000000000000e+00  -1.8402237692840172e+04 0.0000000000000000e+00 0.0000000000000000e+00  -1.8402237692122690e+04 0.0000000000000000e+00 0.0000000000000000e+00  -1.8402237691377741e+04 0.0000000000000000e+00 0.0000000000000000e+00  -1.8402237690597598e+04 0.0000000000000000e+00 0.0000000000000000e+00  -1.8402237689763013e+04 0.0000000000000000e+00 0.0000000000000000e+00  -1.8402237688832531e+04 0.0000000000000000e+00 0.0000000000000000e+00  -1.8402237687706238e+04 0.0000000000000000e+00 0.0000000000000000e+00  -1.8402237682859290e+04 -3.4836051509647648e-06 0.0000000000000000e+00  -1.8402237680126116e+04 -5.3153975914292952e-06 0.0000000000000000e+00  -1.8402237677652236e+04 -6.5464026569747359e-06 0.0000000000000000e+00  -1.8402237675426393e+04 -7.4069587570821493e-06 0.0000000000000000e+00  -1.8402237673430987e+04 -8.0100729650953927e-06 0.0000000000000000e+00  -1.8402237671648993e+04 -8.4224641872359343e-06 0.0000000000000000e+00  -1.8402237670065137e+04 -8.6876504915979781e-06 0.0000000000000000e+00  -1.8402237668665359e+04 -8.8380923719944570e-06 0.0000000000000000e+00  -1.8402237667435362e+04 -8.8963932218172809e-06 0.0000000000000000e+00  -1.8402237666363304e+04 -8.8798838698973900e-06 0.0000000000000000e+00  -1.8402237665437977e+04 -8.8026707206185053e-06 0.0000000000000000e+00  -1.8402237664649037e+04 -8.6749527015071925e-06 0.0000000000000000e+00  -1.8402237663987282e+04 -8.5057342548944707e-06 0.0000000000000000e+00  -1.8402237663444794e+04 -8.3013439586363640e-06 0.0000000000000000e+00  -1.8402237663014414e+04 -8.0678932687914693e-06 0.0000000000000000e+00  -1.8402237662690026e+04 -7.8094999695787765e-06 0.0000000000000000e+00  -1.8402237662467789e+04 -7.5296707243047237e-06 0.0000000000000000e+00  -1.8402237662344822e+04 -7.2329823504018110e-06 0.0000000000000000e+00  -1.8402237662318024e+04 -6.9214004933572687e-06 0.0000000000000000e+00  -1.8402237662394265e+04 -6.5966620441279052e-06 0.0000000000000000e+00  -1.8402237662590069e+04 -6.2683731427071829e-06 0.0000000000000000e+00  -1.8402237662867854e+04 -5.9448036074161535e-06 0.0000000000000000e+00  -1.8402237663204363e+04 -5.6254296449782789e-06 0.0000000000000000e+00  -1.8402237663586002e+04 -5.3100505486801903e-06 0.0000000000000000e+00  -1.8402237664003311e+04 -4.9979492446205697e-06 0.0000000000000000e+00  -1.8402237664449898e+04 -4.6880772849502755e-06 0.0000000000000000e+00  -1.8402237664920645e+04 -4.3806115093307665e-06 0.0000000000000000e+00  -1.8402237665411463e+04 -4.0745743004135065e-06 0.0000000000000000e+00  -1.8402237665919925e+04 -3.7693585954383541e-06 0.0000000000000000e+00  -1.8402237666444078e+04 -3.4650337389374394e-06 0.0000000000000000e+00  -1.8402237666981899e+04 -3.1614094436752860e-06 0.0000000000000000e+00  -1.8402237667532427e+04 -2.8577290817141844e-06 0.0000000000000000e+00  -1.8402237668095459e+04 -2.5543076381455611e-06 0.0000000000000000e+00  -1.8402237668669692e+04 -2.2505060488996860e-06 0.0000000000000000e+00  -1.8402237669256159e+04 -1.9459729193751634e-06 0.0000000000000000e+00  -1.8402237669854920e+04 -1.6411548613735651e-06 0.0000000000000000e+00  -1.8402237670466930e+04 -1.3355139475113305e-06 0.0000000000000000e+00  -1.8402237671093160e+04 -1.0292537869983318e-06 0.0000000000000000e+00  -1.8402237671735002e+04 -7.2230376577869269e-07 0.0000000000000000e+00  -1.8402237672394574e+04 -4.1392319044485601e-07 0.0000000000000000e+00  -1.8402237673058702e+04 -1.1160162838562102e-07 0.0000000000000000e+00  -1.8402237673596454e+04 1.2713716972611628e-07 0.0000000000000000e+00  -1.8402237674094540e+04 3.4332536131507100e-07 0.0000000000000000e+00  -1.8402237674625456e+04 5.6748952707849707e-07 0.0000000000000000e+00  -1.8402237675194301e+04 8.0128431255164504e-07 0.0000000000000000e+00  -1.8402237675809716e+04 1.0461693037538722e-06 0.0000000000000000e+00  -1.8402237676482957e+04 1.3032444050123837e-06 0.0000000000000000e+00  -1.8402237677231111e+04 1.5756580871739663e-06 0.0000000000000000e+00  -1.8402237678083136e+04 1.8674162285522874e-06 0.0000000000000000e+00  -1.8402237679095881e+04 2.1873529719494720e-06 0.0000000000000000e+00  -1.8402237680404738e+04 2.5517683555210434e-06 0.0000000000000000e+00  -1.8402237686508852e+04 3.4764081300604904e-06 0.0000000000000000e+00  -1.8402237687817280e+04 3.5176461872560245e-06 0.0000000000000000e+00  -1.8402237688840250e+04 3.5108246380964276e-06 0.0000000000000000e+00  -1.8402237689710546e+04 3.4813910961194724e-06 0.0000000000000000e+00  -1.8402237690484268e+04 3.4396987771181136e-06 0.0000000000000000e+00  -1.8402237691189854e+04 3.3894619785118542e-06 0.0000000000000000e+00  -1.8402237691842289e+04 3.3336873869220400e-06 0.0000000000000000e+00  -1.8402237692453600e+04 3.2751256994015041e-06 0.0000000000000000e+00  -1.8402237693031351e+04 3.2136151729723727e-06 0.0000000000000000e+00  -1.8402237693580617e+04 3.1506669321164087e-06 0.0000000000000000e+00  -1.8402237694182451e+04 3.0768129864987917e-06 0.0000000000000000e+00  -1.8402237694938231e+04 2.9782855129566719e-06 0.0000000000000000e+00  -1.8402237695704298e+04 2.8728050194857771e-06 0.0000000000000000e+00  -1.8402237696465480e+04 2.7632319942029985e-06 0.0000000000000000e+00  -1.8402237697224296e+04 2.6502545858146172e-06 0.0000000000000000e+00  -1.8402237697983197e+04 2.5346334342246554e-06 0.0000000000000000e+00  -1.8402237698743989e+04 2.4160570409370616e-06 0.0000000000000000e+00  -1.8402237699507808e+04 2.2956355732615734e-06 0.0000000000000000e+00  -1.8402237700276273e+04 2.1728808497920968e-06 0.0000000000000000e+00  -1.8402237701050031e+04 2.0480578433951345e-06 0.0000000000000000e+00  -1.8402237701829818e+04 1.9215143233304069e-06 0.0000000000000000e+00  -1.8402237702616003e+04 1.7928855175941920e-06 0.0000000000000000e+00  -1.8402237703408682e+04 1.6624414797361751e-06 0.0000000000000000e+00  -1.8402237704208132e+04 1.5297263946895371e-06 0.0000000000000000e+00  -1.8402237705013064e+04 1.3942371099246385e-06 0.0000000000000000e+00  -1.8402237705822208e+04 1.2555762161136966e-06 0.0000000000000000e+00  -1.8402237706633296e+04 1.1135926971965031e-06 0.0000000000000000e+00  -1.8402237707443062e+04 9.6749574677644067e-07 0.0000000000000000e+00  -1.8402237708248173e+04 8.1668848975966532e-07 0.0000000000000000e+00  -1.8402237709040917e+04 6.5993560363200559e-07 0.0000000000000000e+00  -1.8402237709811190e+04 4.9573169567387513e-07 0.0000000000000000e+00  -1.8402237710536152e+04 3.2345935121076857e-07 0.0000000000000000e+00  -1.8402237711183108e+04 1.5112784223445889e-07 0.0000000000000000e+00  -1.8402237711772170e+04 -1.3997663045288619e-08 0.0000000000000000e+00  -1.8402237712312275e+04 -1.7077108080011763e-07 0.0000000000000000e+00  -1.8402237712807197e+04 -3.1835286381352776e-07 0.0000000000000000e+00  -1.8402237713257950e+04 -4.5625962567688505e-07 0.0000000000000000e+00  -1.8402237713664650e+04 -5.8316415173348793e-07 0.0000000000000000e+00  -1.8402237714027266e+04 -6.9783038299894799e-07 0.0000000000000000e+00  -1.8402237714345054e+04 -7.9985680993891536e-07 0.0000000000000000e+00  -1.8402237714616615e+04 -8.8727320698197563e-07 0.0000000000000000e+00  -1.8402237714840528e+04 -9.5938384181303666e-07 0.0000000000000000e+00  -1.8402237715014675e+04 -1.0138925124245067e-06 0.0000000000000000e+00  -1.8402237715137093e+04 -1.0493696814646779e-06 0.0000000000000000e+00  -1.8402237715205483e+04 -1.0628292721603210e-06 0.0000000000000000e+00  -1.8402237715218362e+04 -1.0515247886138043e-06 0.0000000000000000e+00  -1.8402237715173305e+04 -1.0123555834480213e-06 0.0000000000000000e+00  -1.8402237715068139e+04 -9.3987763295147874e-07 0.0000000000000000e+00  -1.8402237714901588e+04 -8.2688894639595042e-07 0.0000000000000000e+00  -1.8402237714673309e+04 -6.6237544359228871e-07 0.0000000000000000e+00  -1.8402237714385185e+04 -4.2296917256510110e-07 0.0000000000000000e+00  -1.8402237713010261e+04 0.0000000000000000e+00 0.0000000000000000e+00  -1.8402237712014059e+04 0.0000000000000000e+00 0.0000000000000000e+00  -1.8402237710993097e+04 0.0000000000000000e+00 0.0000000000000000e+00  -1.8402237709932062e+04 0.0000000000000000e+00 0.0000000000000000e+00  -1.8402237708824425e+04 0.0000000000000000e+00 0.0000000000000000e+00  -1.8402237707668010e+04 0.0000000000000000e+00 0.0000000000000000e+00  -1.8402237706463493e+04 0.0000000000000000e+00 0.0000000000000000e+00  -1.8402237705213694e+04 0.0000000000000000e+00 0.0000000000000000e+00  -1.8402237703922641e+04 0.0000000000000000e+00 0.0000000000000000e+00  -1.8402237702595081e+04 0.0000000000000000e+00 0.0000000000000000e+00  -1.8402237701236263e+04 0.0000000000000000e+00 0.0000000000000000e+00  -1.8402237699851295e+04 0.0000000000000000e+00 0.0000000000000000e+00  -1.8402237698445286e+04 0.0000000000000000e+00 0.0000000000000000e+00  -1.8402237697023233e+04 0.0000000000000000e+00 0.0000000000000000e+00  -1.8402237695589381e+04 0.0000000000000000e+00 0.0000000000000000e+00  -1.8402237694147385e+04 0.0000000000000000e+00 0.0000000000000000e+00  -1.8402237692700161e+04 0.0000000000000000e+00 0.0000000000000000e+00  -1.8402237691249924e+04 0.0000000000000000e+00 0.0000000000000000e+00  -1.8402237689798047e+04 0.0000000000000000e+00 0.0000000000000000e+00  -1.8402237688345238e+04 0.0000000000000000e+00 0.0000000000000000e+00  -1.8402237686891593e+04 0.0000000000000000e+00 0.0000000000000000e+00  -1.8402237685436139e+04 0.0000000000000000e+00 0.0000000000000000e+00  -1.8402237683977350e+04 0.0000000000000000e+00 0.0000000000000000e+00  -1.8402237682513296e+04 0.0000000000000000e+00 0.0000000000000000e+00  -1.8402237681041588e+04 0.0000000000000000e+00 0.0000000000000000e+00  -1.8402237679559323e+04 0.0000000000000000e+00 0.0000000000000000e+00  -1.8402237678063360e+04 0.0000000000000000e+00 0.0000000000000000e+00  -1.8402237676550412e+04 0.0000000000000000e+00 0.0000000000000000e+00  -1.8402237675017310e+04 0.0000000000000000e+00 0.0000000000000000e+00  -1.8402237673460761e+04 0.0000000000000000e+00 0.0000000000000000e+00  -1.8402237671877730e+04 0.0000000000000000e+00 0.0000000000000000e+00  -1.8402237670265309e+04 0.0000000000000000e+00 0.0000000000000000e+00  -1.8402237668621277e+04 0.0000000000000000e+00 0.0000000000000000e+00  -1.8402237666943776e+04 0.0000000000000000e+00 0.0000000000000000e+00  -1.8402237665231674e+04 0.0000000000000000e+00 0.0000000000000000e+00  -1.8402237663484349e+04 0.0000000000000000e+00 0.0000000000000000e+00  -1.8402237661702107e+04 0.0000000000000000e+00 0.0000000000000000e+00  -1.8402237659885777e+04 0.0000000000000000e+00 0.0000000000000000e+00  -1.8402237658037197e+04 0.0000000000000000e+00 0.0000000000000000e+00  -1.8402237656158875e+04 0.0000000000000000e+00 0.0000000000000000e+00  -1.8402237654254368e+04 0.0000000000000000e+00 0.0000000000000000e+00  -1.8402237652328087e+04 0.0000000000000000e+00 0.0000000000000000e+00  -1.8402237650393032e+04 0.0000000000000000e+00 0.0000000000000000e+00  -1.8402237648518552e+04 0.0000000000000000e+00 0.0000000000000000e+00  -1.8402237646720056e+04 0.0000000000000000e+00 0.0000000000000000e+00  -1.8402237644997767e+04 0.0000000000000000e+00 0.0000000000000000e+00  -1.8402237643351804e+04 0.0000000000000000e+00 0.0000000000000000e+00  -1.8402237641782252e+04 0.0000000000000000e+00 0.0000000000000000e+00  -1.8402237640289291e+04 0.0000000000000000e+00 0.0000000000000000e+00  -1.8402237638872892e+04 0.0000000000000000e+00 0.0000000000000000e+00  -1.8402237637532999e+04 0.0000000000000000e+00 0.0000000000000000e+00  -1.8402237636269590e+04 0.0000000000000000e+00 0.0000000000000000e+00  -1.8402237635082402e+04 0.0000000000000000e+00 0.0000000000000000e+00  -1.8402237633971199e+04 0.0000000000000000e+00 0.0000000000000000e+00  -1.8402237632935590e+04 0.0000000000000000e+00 0.0000000000000000e+00  -1.8402237631974884e+04 0.0000000000000000e+00 0.0000000000000000e+00  -1.8402237631088021e+04 0.0000000000000000e+00 0.0000000000000000e+00  -1.8402237630273667e+04 0.0000000000000000e+00 0.0000000000000000e+00  -1.8402237629529995e+04 0.0000000000000000e+00 0.0000000000000000e+00  -1.8402237628854862e+04 0.0000000000000000e+00 0.0000000000000000e+00  -1.8402237628246046e+04 0.0000000000000000e+00 0.0000000000000000e+00  -1.8402237627701565e+04 0.0000000000000000e+00 0.0000000000000000e+00  -1.8402237627220533e+04 0.0000000000000000e+00 0.0000000000000000e+00  -1.8402237626803988e+04 0.0000000000000000e+00 0.0000000000000000e+00  -1.8402237626456063e+04 0.0000000000000000e+00 0.0000000000000000e+00  -1.8402237626186714e+04 0.0000000000000000e+00 0.0000000000000000e+00  -1.8402237626021728e+04 0.0000000000000000e+00 0.0000000000000000e+00  -1.8402237627410334e+04 9.1273757662283709e-07 0.0000000000000000e+00  -1.8402237628468378e+04 1.1606843584631252e-06 0.0000000000000000e+00  -1.8402237629337371e+04 1.2109170615797670e-06 0.0000000000000000e+00  -1.8402237630048337e+04 1.1913474297838199e-06 0.0000000000000000e+00  -1.8402237630666274e+04 5.6254085934640122e-07 0.0000000000000000e+00  -1.8402237630650172e+04 1.8113886542250627e-08 0.0000000000000000e+00  -1.8402237630686283e+04 -4.0946898712175252e-07 0.0000000000000000e+00  -1.8402237630817042e+04 -7.3605439435741527e-07 0.0000000000000000e+00  -1.8402237631058328e+04 -9.9423978593502098e-07 0.0000000000000000e+00  -1.8402237631410502e+04 -1.2113246585381961e-06 0.0000000000000000e+00  -1.8402237631867742e+04 -1.4074144155284814e-06 0.0000000000000000e+00  -1.8402237632422868e+04 -1.5938200328101990e-06 0.0000000000000000e+00  -1.8402237633069541e+04 -1.7775015072218301e-06 0.0000000000000000e+00  -1.8402237633803215e+04 -1.9607646018071396e-06 0.0000000000000000e+00  -1.84022376