<?xml version="1.0"?>
<VTKFile type="UnstructuredGrid"  version="0.1"  >
<UnstructuredGrid>
<Piece  NumberOfPoints="4476" NumberOfCells="8467">
<Points>
<DataArray  type="Float64"  NumberOfComponents="3"  format="ascii">-10 0 0  -1 0 0  0.9525 0 0  1 0.9500000000000003 0  1.0475 0 0  10 0 0  10 1 0  -10 1 0  -9.803858462338981 0 0  -9.607716924677964 0 0  -9.411575387016946 0 0  -9.215433849355927 0 0  -9.01929231169491 0 0  -8.823150774033891 0 0  -8.627009236372873 0 0  -8.430867698711854 0 0  -8.234726161050837 0 0  -8.038584623389818 0 0  -7.8424430857288 0 0  -7.646301548067782 0 0  -7.450160010406764 0 0  -7.254018472745745 0 0  -7.057876935084728 0 0  -6.861735397423709 0 0  -6.665593859762691 0 0  -6.469452322101673 0 0  -6.273310784440655 0 0  -6.077169246779636 0 0  -5.881027709118618 0 0  -5.684886171457601 0 0  -5.488744633796326 0 0  -5.292603096133517 0 0  -5.096461558470562 0 0  -4.900320020807607 0 0  -4.704178483144653 0 0  -4.508036945481698 0 0  -4.311895407818743 0 0  -4.115753870155789 0 0  -3.919612332492834 0 0  -3.723470794829879 0 0  -3.527329257166925 0 0  -3.331187719503974 0 0  -3.13504618184102 0 0  -2.939177892941461 0 0  -2.749568302577279 0 0  -2.568352976632339 0 0  -2.395135760334412 0 0  -2.229537936908323 0 0  -2.071197249081669 0 0  -1.919767311262971 0 0  -1.774916622647243 0 0  -1.63632798042406 0 0  -1.50369776993761 0 0  -1.376735313246398 0 0  -1.256939130122111 0 0  -1.164977919604254 0 0  -1.099197615166297 0 0  -1.049035384415253 0 0  -0.9511875000001453 0 0  -0.9023750000002907 0 0  -0.8535625000003796 0 0  -0.8047500000004382 0 0  -0.7559375000004448 0 0  -0.7071250000005684 0 0  -0.6583125000007137 0 0  -0.609500000000859 0 0  -0.5606875000010043 0 0  -0.5118750000011497 0 0  -0.463062500001295 0 0  -0.4142500000014403 0 0  -0.3654375000015856 0 0  -0.3166250000017309 0 0  -0.2678125000018546 0 0  -0.2190000000019783 0 0  -0.1701875000021238 0 0  -0.1213750000022692 0 0  -0.07256250000241493 0 0  -0.0237500000025388 0 0  0.02506249999757215 0 0  0.07387499999770442 0 0  0.1226874999978367 0 0  0.1714999999979692 0 0  0.2203124999981017 0 0  0.2691249999982339 0 0  0.3179374999983662 0 0  0.3667499999984987 0 0  0.4155624999986309 0 0  0.4643749999987199 0 0  0.5131874999988091 0 0  0.5619999999989413 0 0  0.6108124999990736 0 0  0.6596249999992061 0 0  0.7084374999993384 0 0  0.7572499999994708 0 0  0.8060624999996033 0 0  0.8548749999997356 0 0  0.9036874999998679 0 0  0.9549173928314052 0.04834785662810361 0  0.9572234637510991 0.09446927502198293 0  0.959423308608826 0.1384661721765194 0  0.961521819999543 0.1804363999908603 0  0.9635236657377426 0.2204733147548523 0  0.965433299304485 0.2586659860896992 0  0.9672549678075555 0.2950993561511104 0  0.9689927235724188 0.329854471448377 0  0.9706504317027127 0.3630086340542535 0  0.9722317792147558 0.3946355842951147 0  0.9737402846115558 0.4248056922311155 0  0.9751793021018872 0.4535860420377439 0  0.9765520331494055 0.4810406629881107 0  0.9778615309606434 0.5072306192128683 0  0.9791107082467546 0.5322141649350919 0  0.9803023439007181 0.5560468780143618 0  0.9814390882706492 0.5787817654129841 0  0.9825234698938321 0.6004693978766413 0  0.983557900666056 0.6211580133211199 0  0.9845446817579071 0.6408936351581415 0  0.9854860081262611 0.6597201625252224 0  0.9863839732703714 0.677679465407429 0  0.9872405747673146 0.6948114953462936 0  0.9880577180250146 0.7111543605002935 0  0.988837220675993 0.7267444135198597 0  0.9895808165280437 0.7416163305608754 0  0.9902901594400745 0.7558031888014906 0  0.9909668273402722 0.7693365468054433 0  0.9916123253905016 0.7822465078100322 0  0.992228089322461 0.7945617864492202 0  0.9928154888984736 0.8063097779694727 0  0.9933758306025743 0.8175166120514858 0  0.9939103608134926 0.8282072162698516 0  0.9944202685923504 0.838405371847009 0  0.9949066881305013 0.8481337626100257 0  0.9953707013024522 0.8574140260490447 0  0.9958133403338698 0.8662668066773966 0  0.9962355896215802 0.874711792431604 0  0.9966383885850199 0.8827677717003962 0  0.9970226332355453 0.8904526647109064 0  0.9973810011725871 0.8976200234517416 0  0.9976515245939315 0.9030304918786295 0  0.9978863721345377 0.9077274426907546 0  0.9981212196751437 0.9124243935028737 0  0.9983560672157502 0.9171213443150052 0  0.9985909147563571 0.9218182951271425 0  0.9988257622969644 0.926515245939289 0  0.9990606098375717 0.9312121967514357 0  0.999295457378179 0.9359091475635821 0  0.9995303049187865 0.9406060983757288 0  0.9997651524593933 0.9453030491878673 0  1.00023484747945 0.9453030504110064 0  1.000469694958899 0.9406061008220123 0  1.000704542438349 0.9359091512330184 0  1.000939389917798 0.931212201644036 0  1.001174237397247 0.9265152520550557 0  1.001409084876696 0.9218183024660754 0  1.001643932356146 0.9171213528770858 0  1.001878779835595 0.9124244032880919 0  1.002113627315045 0.907727453699098 0  1.002348474794495 0.9030305041101094 0  1.002618997915703 0.8976200416859501 0  1.002977365591893 0.8904526881621491 0  1.003361610083261 0.8827677983347728 0  1.003764408874976 0.8747118225004775 0  1.004186657977326 0.8662668404534918 0  1.004629296809568 0.8574140638086457 0  1.005093309766678 0.8481338046664357 0  1.005579729073468 0.8384054185306302 0  1.006089636603591 0.8282072679281824 0  1.006624166547543 0.8175166690491324 0  1.007184507964099 0.8063098407180234 0  1.007771907232486 0.7945618553502881 0  1.008387670833428 0.78224658333145 0  1.009033168529782 0.7693366294043538 0  1.009709836049617 0.755803279007667 0  1.010419178555365 0.7416164288927061 0  1.011162773970781 0.7267445205843861 0  1.011942276156321 0.7111544768735878 0  1.012759418915044 0.6948116216991302 0  1.013616019877976 0.677679602440491 0  1.014513984451545 0.6597203109691103 0  1.015455310211333 0.6408937957733505 0  1.016442090652748 0.6211581869450444 0  1.017476520728535 0.6004695854292965 0  1.018560901609849 0.5787819678030164 0  1.019697645188209 0.5560470962358199 0  1.020889279998978 0.532214400020448 0  1.022138456382934 0.5072308723413297 0  1.02344795323626 0.4810409352747998 0  1.024820683259656 0.4535863348068799 0  1.026259699660003 0.4248060067999341 0  1.027768203894117 0.3946359221176616 0  1.029349550171164 0.3630089965767126 0  1.031007256983863 0.3298548603227385 0  1.032745011345542 0.2950997730891691 0  1.034566678356847 0.258666432863055 0  1.03647631033356 0.2204737933288 0  1.038478154380048 0.18043691239904 0  1.040576663980932 0.1384667203813595 0  1.042776506926349 0.09446986147302272 0  1.045082575814249 0.04834848371501344 0  1.097137500843385 0 0  1.147013615385393 0 0  1.197250636979773 0 0  1.24797147589595 0 0  1.299299872137887 0 0  1.351360624353073 0 0  1.404279814717878 0 0  1.458185075430549 0 0  1.513205783615218 0 0  1.56947340126322 0 0  1.627121698719749 0 0  1.686287116450538 0 0  1.74710880454872 0 0  1.80972934839412 0 0  1.874294858697211 0 0  1.940955221178581 0 0  2.009864605893176 0 0  2.081181746464038 0 0  2.155070333199603 0 0  2.231699437253408 0 0  2.311243800552664 0 0  2.393884338431207 0 0  2.479808568723427 0 0  2.569210940626538 0 0  2.662293433705642 0 0  2.759265908256055 0 0  2.860346656180274 0 0  2.965762885914615 0 0  3.075751231245027 0 0  3.19055833466445 0 0  3.310441378518669 0 0  3.435668638360885 0 0  3.566520166200541 0 0  3.703288415933228 0 0  3.8462787758223 0 0  3.995810520644916 0 0  4.15221721211508 0 0  4.31584776770763 0 0  4.487066932064819 0 0  4.666256346432944 0 0  4.853815267483814 0 0  5.04971196510908 0 0  5.247723486503665 0 0  5.445735007898287 0 0  5.643746529293535 0 0  5.841758050689592 0 0  6.039769572085393 0 0  6.237781093480764 0 0  6.43579261487687 0 0  6.633804136272499 0 0  6.83181565766804 0 0  7.029827179064146 0 0  7.227838700459605 0 0  7.425850221855317 0 0  7.623861743251418 0 0  7.821873264646711 0 0  8.019884786042713 0 0  8.217896307438872 0 0  8.415907828834163 0 0  8.613919350230043 0 0  8.811930871625798 0 0  9.009942393021214 0 0  9.207953914416738 0 0  9.405965435812732 0 0  9.603976957208836 0 0  9.801988478604187 0 0  10 0.1999999999995579 0  10 0.3999999999989749 0  10 0.5999999999989468 0  10 0.7999999999994734 0  9.800575996776031 1 0  9.601151993552062 1 0  9.401727990328094 1 0  9.202303987104125 1 0  9.002879983880156 1 0  8.803455980656187 1 0  8.604031977432218 1 0  8.40460797420825 1 0  8.205183970984281 1 0  8.005759967760312 1 0  7.806335964536344 1 0  7.60691196131243 1 0  7.407487958088888 1 0  7.208063954865734 1 0  7.008639951642651 1 0  6.809215948419568 1 0  6.609791945196485 1 0  6.410367941973401 1 0  6.210943938750319 1 0  6.011519935527235 1 0  5.812095932304152 1 0  5.612671929081069 1 0  5.413247925857986 1 0  5.213823922634902 1 0  5.015243811921192 1 0  4.82435956465779 1 0  4.642328595289649 1 0  4.468740258785571 1 0  4.303202825842178 1 0  4.145342831167929 1 0  3.994804153950566 1 0  3.8512471484775 1 0  3.714347926054283 1 0  3.583797600332654 1 0  3.459301639331763 1 0  3.340579154667353 1 0  3.227362295170822 1 0  3.119395607879967 1 0  3.016435507943106 1 0  2.918249705556917 1 0  2.824616648174518 1 0  2.7353251101607 1 0  2.650173576439188 1 0  2.568969972376384 1 0  2.491531073154755 1 0  2.417682139602779 1 0  2.347256551205183 1 0  2.280095399177634 1 0  2.216047144131189 1 0  2.154967264670362 1 0  2.096717936489315 1 0  2.041167716830921 1 0  1.988191244259683 1 0  1.937668987932621 1 0  1.88948691248514 1 0  1.843536273225745 1 0  1.799713381735112 1 0  1.757919304409434 1 0  1.718059692679169 1 0  1.680044580871252 1 0  1.643788130897317 1 0  1.609208471979626 1 0  1.576227510650078 1 0  1.54477075146224 1 0  1.514767118537957 1 0  1.486148811166045 1 0  1.458851131196843 1 0  1.432812347986726 1 0  1.407973559295883 1 0  1.384278527233327 1 0  1.361673597288288 1 0  1.340107523681787 1 0  1.319531371942366 1 0  1.299898405239752 1 0  1.281163982429543 1 0  1.263285413268653 1 0  1.246221889667353 1 0  1.229934357922094 1 0  1.214385438433801 1 0  1.199539302820845 
[...]
<PointData  Vectors="f_2684"> 
<DataArray  type="Float64"  Name="f_2684"  NumberOfComponents="3" format="ascii">-5.2648618561822462e-04 0.0000000000000000e+00 0.0000000000000000e+00  -6.3638117149574468e-04 0.0000000000000000e+00 0.0000000000000000e+00  -6.4893840805499729e-04 0.0000000000000000e+00 0.0000000000000000e+00  -6.2172820306320687e-04 -8.1066839045125776e-06 0.0000000000000000e+00  -6.3283870873005656e-04 0.0000000000000000e+00 0.0000000000000000e+00  -5.3387976947806104e-04 0.0000000000000000e+00 0.0000000000000000e+00  -5.3930761445232587e-04 1.4196497222531397e-06 0.0000000000000000e+00  -5.3191398799525707e-04 -1.4196499174129813e-06 0.0000000000000000e+00  -5.2632932024387284e-04 0.0000000000000000e+00 0.0000000000000000e+00  -5.2652412493132278e-04 0.0000000000000000e+00 0.0000000000000000e+00  -5.2684335453682875e-04 0.0000000000000000e+00 0.0000000000000000e+00  -5.2725609094944105e-04 0.0000000000000000e+00 0.0000000000000000e+00  -5.2775042690496972e-04 0.0000000000000000e+00 0.0000000000000000e+00  -5.2832122510382230e-04 0.0000000000000000e+00 0.0000000000000000e+00  -5.2896710728157065e-04 0.0000000000000000e+00 0.0000000000000000e+00  -5.2968907821067444e-04 0.0000000000000000e+00 0.0000000000000000e+00  -5.3048938764292252e-04 0.0000000000000000e+00 0.0000000000000000e+00  -5.3137068921788348e-04 0.0000000000000000e+00 0.0000000000000000e+00  -5.3233550849255068e-04 0.0000000000000000e+00 0.0000000000000000e+00  -5.3338597935238927e-04 0.0000000000000000e+00 0.0000000000000000e+00  -5.3452376424024733e-04 0.0000000000000000e+00 0.0000000000000000e+00  -5.3575007997180640e-04 0.0000000000000000e+00 0.0000000000000000e+00  -5.3706577149415543e-04 0.0000000000000000e+00 0.0000000000000000e+00  -5.3847139713429344e-04 0.0000000000000000e+00 0.0000000000000000e+00  -5.3996730762522795e-04 0.0000000000000000e+00 0.0000000000000000e+00  -5.4155371032830698e-04 0.0000000000000000e+00 0.0000000000000000e+00  -5.4323071733438819e-04 0.0000000000000000e+00 0.0000000000000000e+00  -5.4499837884809297e-04 0.0000000000000000e+00 0.0000000000000000e+00  -5.4685670438678704e-04 0.0000000000000000e+00 0.0000000000000000e+00  -5.4880567438767502e-04 0.0000000000000000e+00 0.0000000000000000e+00  -5.5084524457658696e-04 0.0000000000000000e+00 0.0000000000000000e+00  -5.5297534509311016e-04 0.0000000000000000e+00 0.0000000000000000e+00  -5.5519587635231545e-04 0.0000000000000000e+00 0.0000000000000000e+00  -5.5750670407320115e-04 0.0000000000000000e+00 0.0000000000000000e+00  -5.5990765738509721e-04 0.0000000000000000e+00 0.0000000000000000e+00  -5.6239853515331368e-04 0.0000000000000000e+00 0.0000000000000000e+00  -5.6497913221701822e-04 0.0000000000000000e+00 0.0000000000000000e+00  -5.6764930010289624e-04 0.0000000000000000e+00 0.0000000000000000e+00  -5.7040906836703590e-04 0.0000000000000000e+00 0.0000000000000000e+00  -5.7325885963376304e-04 0.0000000000000000e+00 0.0000000000000000e+00  -5.7619985554474074e-04 0.0000000000000000e+00 0.0000000000000000e+00  -5.7923457305377000e-04 0.0000000000000000e+00 0.0000000000000000e+00  -5.8236773690566201e-04 0.0000000000000000e+00 0.0000000000000000e+00  -5.8560294752542570e-04 0.0000000000000000e+00 0.0000000000000000e+00  -5.8884860890592622e-04 0.0000000000000000e+00 0.0000000000000000e+00  -5.9207252956905865e-04 0.0000000000000000e+00 0.0000000000000000e+00  -5.9528785734575332e-04 0.0000000000000000e+00 0.0000000000000000e+00  -5.9851129622696606e-04 0.0000000000000000e+00 0.0000000000000000e+00  -6.0176272750244613e-04 0.0000000000000000e+00 0.0000000000000000e+00  -6.0506514756341267e-04 0.0000000000000000e+00 0.0000000000000000e+00  -6.0844509692588062e-04 0.0000000000000000e+00 0.0000000000000000e+00  -6.1193477445376627e-04 0.0000000000000000e+00 0.0000000000000000e+00  -6.1557617706317234e-04 0.0000000000000000e+00 0.0000000000000000e+00  -6.1943047256118931e-04 0.0000000000000000e+00 0.0000000000000000e+00  -6.2353424242927557e-04 0.0000000000000000e+00 0.0000000000000000e+00  -6.2714955931974907e-04 0.0000000000000000e+00 0.0000000000000000e+00  -6.3013693482847201e-04 0.0000000000000000e+00 0.0000000000000000e+00  -6.3280895698168390e-04 0.0000000000000000e+00 0.0000000000000000e+00  -6.3991642718526582e-04 0.0000000000000000e+00 0.0000000000000000e+00  -6.4245760182758910e-04 0.0000000000000000e+00 0.0000000000000000e+00  -6.4461170962266706e-04 0.0000000000000000e+00 0.0000000000000000e+00  -6.4650310170586182e-04 0.0000000000000000e+00 0.0000000000000000e+00  -6.4819203815857311e-04 0.0000000000000000e+00 0.0000000000000000e+00  -6.4971351927201786e-04 0.0000000000000000e+00 0.0000000000000000e+00  -6.5109036020492383e-04 0.0000000000000000e+00 0.0000000000000000e+00  -6.5233853385423168e-04 0.0000000000000000e+00 0.0000000000000000e+00  -6.5346978041837950e-04 0.0000000000000000e+00 0.0000000000000000e+00  -6.5449304286488896e-04 0.0000000000000000e+00 0.0000000000000000e+00  -6.5541531983667116e-04 0.0000000000000000e+00 0.0000000000000000e+00  -6.5624220660905140e-04 0.0000000000000000e+00 0.0000000000000000e+00  -6.5697825470710123e-04 0.0000000000000000e+00 0.0000000000000000e+00  -6.5762722182786341e-04 0.0000000000000000e+00 0.0000000000000000e+00  -6.5819225151342493e-04 0.0000000000000000e+00 0.0000000000000000e+00  -6.5867600925470352e-04 0.0000000000000000e+00 0.0000000000000000e+00  -6.5908078564522220e-04 0.0000000000000000e+00 0.0000000000000000e+00  -6.5940858350587328e-04 0.0000000000000000e+00 0.0000000000000000e+00  -6.5966119134527326e-04 0.0000000000000000e+00 0.0000000000000000e+00  -6.5984024858253810e-04 0.0000000000000000e+00 0.0000000000000000e+00  -6.5994730735932183e-04 0.0000000000000000e+00 0.0000000000000000e+00  -6.5998389177306972e-04 0.0000000000000000e+00 0.0000000000000000e+00  -6.5995155536873330e-04 0.0000000000000000e+00 0.0000000000000000e+00  -6.5985193689287267e-04 0.0000000000000000e+00 0.0000000000000000e+00  -6.5968681192750801e-04 0.0000000000000000e+00 0.0000000000000000e+00  -6.5945813605257375e-04 0.0000000000000000e+00 0.0000000000000000e+00  -6.5916807356982115e-04 0.0000000000000000e+00 0.0000000000000000e+00  -6.5881900051368561e-04 0.0000000000000000e+00 0.0000000000000000e+00  -6.5841346805784037e-04 0.0000000000000000e+00 0.0000000000000000e+00  -6.5795410374053264e-04 0.0000000000000000e+00 0.0000000000000000e+00  -6.5744341826235808e-04 0.0000000000000000e+00 0.0000000000000000e+00  -6.5688347182848853e-04 0.0000000000000000e+00 0.0000000000000000e+00  -6.5627531904319659e-04 0.0000000000000000e+00 0.0000000000000000e+00  -6.5561810353630893e-04 0.0000000000000000e+00 0.0000000000000000e+00  -6.5490755100461524e-04 0.0000000000000000e+00 0.0000000000000000e+00  -6.5413329619633839e-04 0.0000000000000000e+00 0.0000000000000000e+00  -6.5327361926957356e-04 0.0000000000000000e+00 0.0000000000000000e+00  -6.5228260273031825e-04 0.0000000000000000e+00 0.0000000000000000e+00  -6.5104947313080386e-04 0.0000000000000000e+00 0.0000000000000000e+00  -6.4518529992921769e-04 -4.6496557436555016e-06 0.0000000000000000e+00  -6.4179626599096583e-04 -7.1492270271089369e-06 0.0000000000000000e+00  -6.3871535094439918e-04 -8.9034177937181457e-06 0.0000000000000000e+00  -6.3592033975666431e-04 -1.0201555302768506e-05 0.0000000000000000e+00  -6.3338693760104444e-04 -1.1184313286459454e-05 0.0000000000000000e+00  -6.3109352578801263e-04 -1.1934567400586906e-05 0.0000000000000000e+00  -6.2902052848212220e-04 -1.2506940555549782e-05 0.0000000000000000e+00  -6.2715032030278217e-04 -1.2939849172685500e-05 0.0000000000000000e+00  -6.2546691919828734e-04 -1.3261508141194934e-05 0.0000000000000000e+00  -6.2395584602934677e-04 -1.3493276210166146e-05 0.0000000000000000e+00  -6.2260401019237474e-04 -1.3651682971505956e-05 0.0000000000000000e+00  -6.2139961617705471e-04 -1.3749732864564523e-05 0.0000000000000000e+00  -6.2033207966208240e-04 -1.3797783820755026e-05 0.0000000000000000e+00  -6.1939198478038252e-04 -1.3804179862061836e-05 0.0000000000000000e+00  -6.1857105877874733e-04 -1.3775682945312071e-05 0.0000000000000000e+00  -6.1786220222166774e-04 -1.3717821656117264e-05 0.0000000000000000e+00  -6.1725960921824149e-04 -1.3635133756200774e-05 0.0000000000000000e+00  -6.1675909091921902e-04 -1.3531365700410382e-05 0.0000000000000000e+00  -6.1635896207171310e-04 -1.3409671919848748e-05 0.0000000000000000e+00  -6.1606411037562286e-04 -1.3272536282317723e-05 0.0000000000000000e+00  -6.1589062795635587e-04 -1.3129218985173625e-05 0.0000000000000000e+00  -6.1580035370666585e-04 -1.2988788751442185e-05 0.0000000000000000e+00  -6.1576880229540735e-04 -1.2850788631965430e-05 0.0000000000000000e+00  -6.1578215865209368e-04 -1.2714734634601409e-05 0.0000000000000000e+00  -6.1583078789305575e-04 -1.2580132785244990e-05 0.0000000000000000e+00  -6.1590752583571260e-04 -1.2446493053526581e-05 0.0000000000000000e+00  -6.1600688254960685e-04 -1.2313341855255714e-05 0.0000000000000000e+00  -6.1612458886379086e-04 -1.2180230534731823e-05 0.0000000000000000e+00  -6.1625729835898654e-04 -1.2046736423458536e-05 0.0000000000000000e+00  -6.1640238683056069e-04 -1.1912470264885440e-05 0.0000000000000000e+00  -6.1655780624979035e-04 -1.1777069352135743e-05 0.0000000000000000e+00  -6.1672197298667894e-04 -1.1640203871732781e-05 0.0000000000000000e+00  -6.1689368364008191e-04 -1.1501567848121376e-05 0.0000000000000000e+00  -6.1707205336065192e-04 -1.1360875163174214e-05 0.0000000000000000e+00  -6.1725646365376973e-04 -1.1217858529227563e-05 0.0000000000000000e+00  -6.1744652797938722e-04 -1.1072257383143881e-05 0.0000000000000000e+00  -6.1764206663533576e-04 -1.0923810043377175e-05 0.0000000000000000e+00  -6.1784309162245710e-04 -1.0772241085569596e-05 0.0000000000000000e+00  -6.1804980476471132e-04 -1.0617244844336173e-05 0.0000000000000000e+00  -6.1826260883260202e-04 -1.0458461458390245e-05 0.0000000000000000e+00  -6.1847704157065033e-04 -1.0299215839158653e-05 0.0000000000000000e+00  -6.1865077678846200e-04 -1.0170760526625862e-05 0.0000000000000000e+00  -6.1881117737996600e-04 -1.0052639339796067e-05 0.0000000000000000e+00  -6.1898183415595438e-04 -9.9275000848172184e-06 0.0000000000000000e+00  -6.1916444276717195e-04 -9.7942517182338370e-06 0.0000000000000000e+00  -6.1936129608525952e-04 -9.6514234160911423e-06 0.0000000000000000e+00  -6.1957564592900443e-04 -9.4969226507169552e-06 0.0000000000000000e+00  -6.1981243218070482e-04 -9.3275634319263104e-06 0.0000000000000000e+00  -6.2007993385100168e-04 -9.1379695234164134e-06 0.0000000000000000e+00  -6.2039446013432758e-04 -8.9176484531891292e-06 0.0000000000000000e+00  -6.2079471576432003e-04 -8.6430746521388578e-06 0.0000000000000000e+00  -6.2255619603928628e-04 -7.5649866623702208e-06 0.0000000000000000e+00  -6.2293498400362718e-04 -7.3536517997921289e-06 0.0000000000000000e+00  -6.2324239867665048e-04 -7.1966606866691611e-06 0.0000000000000000e+00  -6.2351366434835608e-04 -7.0684877754478394e-06 0.0000000000000000e+00  -6.2376338178402578e-04 -6.9584575949416470e-06 0.0000000000000000e+00  -6.2399875470793619e-04 -6.8612474683563970e-06 0.0000000000000000e+00  -6.2422387950655692e-04 -6.7737001993297860e-06 0.0000000000000000e+00  -6.2444131887243832e-04 -6.6937506717707776e-06 0.0000000000000000e+00  -6.2465277133785552e-04 -6.6199531210830531e-06 0.0000000000000000e+00  -6.2485942410325378e-04 -6.5512537866958233e-06 0.0000000000000000e+00  -6.2509263035465926e-04 -6.4774094129168114e-06 0.0000000000000000e+00  -6.2539511199484520e-04 -6.3868238713263299e-06 0.0000000000000000e+00  -6.2571286933899809e-04 -6.2972220378825099e-06 0.0000000000000000e+00  -6.2604008056144718e-04 -6.2101368704188732e-06 0.0000000000000000e+00  -6.2637774270723177e-04 -6.1250750432555069e-06 0.0000000000000000e+00  -6.2672672241196790e-04 -6.0416488856725815e-06 0.0000000000000000e+00  -6.2708777404012043e-04 -5.9595595911492092e-06 0.0000000000000000e+00  -6.2746153849253773e-04 -5.8785852858541199e-06 0.0000000000000000e+00  -6.2784854193432887e-04 -5.7985789456736521e-06 0.0000000000000000e+00  -6.2824917534457653e-04 -5.7194625424182106e-06 0.0000000000000000e+00  -6.2866366992515659e-04 -5.6412291205062945e-06 0.0000000000000000e+00  -6.2909205628676023e-04 -5.5639429309282446e-06 0.0000000000000000e+00  -6.2953411371005782e-04 -5.4877457837569965e-06 0.0000000000000000e+00  -6.2998930016083755e-04 -5.4128602151801102e-06 0.0000000000000000e+00  -6.3045665655180798e-04 -5.3395962865559060e-06 0.0000000000000000e+00  -6.3093467655606040e-04 -5.2683593034185983e-06 0.0000000000000000e+00  -6.3142112247703531e-04 -5.1996583484172438e-06 0.0000000000000000e+00  -6.3191275192864054e-04 -5.1341175414087642e-06 0.0000000000000000e+00  -6.3240488530180142e-04 -5.0724811419965709e-06 0.0000000000000000e+00  -6.3289063855873854e-04 -5.0156348164625155e-06 0.0000000000000000e+00  -6.3335924358948789e-04 -4.9645765434994623e-06 0.0000000000000000e+00  -6.3378955574566514e-04 -4.9205384822909941e-06 0.0000000000000000e+00  -6.3414714680443812e-04 -4.8754583990853129e-06 0.0000000000000000e+00  -6.3445225594551931e-04 -4.8212744949936780e-06 0.0000000000000000e+00  -6.3471430991047563e-04 -4.7571282361215324e-06 0.0000000000000000e+00  -6.3493668603525064e-04 -4.6819471625808984e-06 0.0000000000000000e+00  -6.3512079519813410e-04 -4.5945761486624411e-06 0.0000000000000000e+00  -6.3526703884279835e-04 -4.4937638815479793e-06 0.0000000000000000e+00  -6.3537519997888239e-04 -4.3781192635289972e-06 0.0000000000000000e+00  -6.3544463437729872e-04 -4.2460777243944158e-06 0.0000000000000000e+00  -6.3547439016096183e-04 -4.0958854170461362e-06 0.0000000000000000e+00  -6.3546328329410352e-04 -3.9255285092242781e-06 0.0000000000000000e+00  -6.3540995744960764e-04 -3.7326876551911737e-06 0.0000000000000000e+00  -6.3531294151023736e-04 -3.5146292546919546e-06 0.0000000000000000e+00  -6.3517070407788877e-04 -3.2680835415324830e-06 0.0000000000000000e+00  -6.3498173336939967e-04 -2.9890352166312136e-06 0.0000000000000000e+00  -6.3474464401326168e-04 -2.6723877564553824e-06 0.0000000000000000e+00  -6.3445834111235534e-04 -2.3113652858080383e-06 0.0000000000000000e+00  -6.3412228841086462e-04 -1.8963080632540261e-06 0.0000000000000000e+00  -6.3373714435036531e-04 -1.4117504374711007e-06 0.0000000000000000e+00  -6.3330651853415586e-04 -8.2717098742949334e-07 0.0000000000000000e+00  -6.3162615017215806e-04 0.0000000000000000e+00 0.0000000000000000e+00  -6.3048144271389420e-04 0.0000000000000000e+00 0.0000000000000000e+00  -6.2933079345132883e-04 0.0000000000000000e+00 0.0000000000000000e+00  -6.2815903564121002e-04 0.0000000000000000e+00 0.0000000000000000e+00  -6.2695990322872235e-04 0.0000000000000000e+00 0.0000000000000000e+00  -6.2573098349695815e-04 0.0000000000000000e+00 0.0000000000000000e+00  -6.2447191871240100e-04 0.0000000000000000e+00 0.0000000000000000e+00  -6.2318353192082686e-04 0.0000000000000000e+00 0.0000000000000000e+00  -6.2186729872010401e-04 0.0000000000000000e+00 0.0000000000000000e+00  -6.2052499304192106e-04 0.0000000000000000e+00 0.0000000000000000e+00  -6.1915844725496719e-04 0.0000000000000000e+00 0.0000000000000000e+00  -6.1776937275542906e-04 0.0000000000000000e+00 0.0000000000000000e+00  -6.1635925118062700e-04 0.0000000000000000e+00 0.0000000000000000e+00  -6.1492924171426770e-04 0.0000000000000000e+00 0.0000000000000000e+00  -6.1348013477473555e-04 0.0000000000000000e+00 0.0000000000000000e+00  -6.1201232392259274e-04 0.0000000000000000e+00 0.0000000000000000e+00  -6.1052579138756963e-04 0.0000000000000000e+00 0.0000000000000000e+00  -6.0902011037979173e-04 0.0000000000000000e+00 0.0000000000000000e+00  -6.0749446076399671e-04 0.0000000000000000e+00 0.0000000000000000e+00  -6.0594765305849174e-04 0.0000000000000000e+00 0.0000000000000000e+00  -6.0437816472095403e-04 0.0000000000000000e+00 0.0000000000000000e+00  -6.0278418220910000e-04 0.0000000000000000e+00 0.0000000000000000e+00  -6.0116365167792749e-04 0.0000000000000000e+00 0.0000000000000000e+00  -5.9951433828700203e-04 0.0000000000000000e+00 0.0000000000000000e+00  -5.9783388805689796e-04 0.0000000000000000e+00 0.0000000000000000e+00  -5.9611989826539803e-04 0.0000000000000000e+00 0.0000000000000000e+00  -5.9436998990211154e-04 0.0000000000000000e+00 0.0000000000000000e+00  -5.9258188348650705e-04 0.0000000000000000e+00 0.0000000000000000e+00  -5.9075347574095289e-04 0.0000000000000000e+00 0.0000000000000000e+00  -5.8888291718492392e-04 0.0000000000000000e+00 0.0000000000000000e+00  -5.8696868740586692e-04 0.0000000000000000e+00 0.0000000000000000e+00  -5.8500967030951357e-04 0.0000000000000000e+00 0.0000000000000000e+00  -5.8300522211946816e-04 0.0000000000000000e+00 0.0000000000000000e+00  -5.8095523647575312e-04 0.0000000000000000e+00 0.0000000000000000e+00  -5.7886020729022041e-04 0.0000000000000000e+00 0.0000000000000000e+00  -5.7672128230045817e-04 0.0000000000000000e+00 0.0000000000000000e+00  -5.7454032104010152e-04 0.0000000000000000e+00 0.0000000000000000e+00  -5.7231994301335919e-04 0.0000000000000000e+00 0.0000000000000000e+00  -5.7006358676481533e-04 0.0000000000000000e+00 0.0000000000000000e+00  -5.6777556538683757e-04 0.0000000000000000e+00 0.0000000000000000e+00  -5.6546113551257150e-04 0.0000000000000000e+00 0.0000000000000000e+00  -5.6313181699895604e-04 0.0000000000000000e+00 0.0000000000000000e+00  -5.6086886754191576e-04 0.0000000000000000e+00 0.0000000000000000e+00  -5.5869805250499097e-04 0.0000000000000000e+00 0.0000000000000000e+00  -5.5661947387262349e-04 0.0000000000000000e+00 0.0000000000000000e+00  -5.5463320746319659e-04 0.0000000000000000e+00 0.0000000000000000e+00  -5.5273930470749449e-04 0.0000000000000000e+00 0.0000000000000000e+00  -5.5093779267252553e-04 0.0000000000000000e+00 0.0000000000000000e+00  -5.4922866986501699e-04 0.0000000000000000e+00 0.0000000000000000e+00  -5.4761189508455057e-04 0.0000000000000000e+00 0.0000000000000000e+00  -5.4608736698607142e-04 0.0000000000000000e+00 0.0000000000000000e+00  -5.4465489148920862e-04 0.0000000000000000e+00 0.0000000000000000e+00  -5.4331413405009409e-04 0.0000000000000000e+00 0.0000000000000000e+00  -5.4206455448395764e-04 0.0000000000000000e+00 0.0000000000000000e+00  -5.4090532656412139e-04 0.0000000000000000e+00 0.0000000000000000e+00  -5.3983524831684605e-04 0.0000000000000000e+00 0.0000000000000000e+00  -5.3885266213114704e-04 0.0000000000000000e+00 0.0000000000000000e+00  -5.3795541992981359e-04 0.0000000000000000e+00 0.0000000000000000e+00  -5.3714095285682282e-04 0.0000000000000000e+00 0.0000000000000000e+00  -5.3640652628453344e-04 0.0000000000000000e+00 0.0000000000000000e+00  -5.3574977253605560e-04 0.0000000000000000e+00 0.0000000000000000e+00  -5.3516955144105498e-04 0.0000000000000000e+00 0.0000000000000000e+00  -5.3466712089393794e-04 0.0000000000000000e+00 0.0000000000000000e+00  -5.3424757065377213e-04 0.0000000000000000e+00 0.0000000000000000e+00  -5.3392283846023542e-04 0.0000000000000000e+00 0.0000000000000000e+00  -5.3372399993418444e-04 0.0000000000000000e+00 0.0000000000000000e+00  -5.3538861916593839e-04 1.0948655376780142e-06 0.0000000000000000e+00  -5.3665782235233690e-04 1.3929809859116338e-06 0.0000000000000000e+00  -5.3770037552604961e-04 1.4538499451021665e-06 0.0000000000000000e+00  -5.3855330687826032e-04 1.4316111681963944e-06 0.0000000000000000e+00  -5.3929592440239520e-04 6.7695638519035118e-07 0.0000000000000000e+00  -5.3927564586209349e-04 2.3736436967377699e-08 0.0000000000000000e+00  -5.3931827229572937e-04 -4.8864768312654210e-07 0.0000000000000000e+00  -5.3947438184783142e-04 -8.8027710138327818e-07 0.0000000000000000e+00  -5.3976286355808414e-04 -1.1895215287159897e-06 0.0000000000000000e+00  -5.4018408196566286e-04 -1.4499038181109583e-06 0.0000000000000000e+00  -5.4073100257011765e-04 -1.6845488354953615e-06 0.0000000000000000e+00  -5.4139516373200329e-04 -1.9076182216170716e-06 0.0000000000000000e+00  -5.4216913848427570e-04 -2.1269994109674661e-06 0.0000000000000000e+00  -5.4304721808130449e-04 -2.346635317246