<?xml version="1.0"?>
<VTKFile type="UnstructuredGrid"  version="0.1"  >
<UnstructuredGrid>
<Piece  NumberOfPoints="4476" NumberOfCells="8467">
<Points>
<DataArray  type="Float64"  NumberOfComponents="3"  format="ascii">-10 0 0  -1 0 0  0.9525 0 0  1 0.9500000000000003 0  1.0475 0 0  10 0 0  10 1 0  -10 1 0  -9.803858462338981 0 0  -9.607716924677964 0 0  -9.411575387016946 0 0  -9.215433849355927 0 0  -9.01929231169491 0 0  -8.823150774033891 0 0  -8.627009236372873 0 0  -8.430867698711854 0 0  -8.234726161050837 0 0  -8.038584623389818 0 0  -7.8424430857288 0 0  -7.646301548067782 0 0  -7.450160010406764 0 0  -7.254018472745745 0 0  -7.057876935084728 0 0  -6.861735397423709 0 0  -6.665593859762691 0 0  -6.469452322101673 0 0  -6.273310784440655 0 0  -6.077169246779636 0 0  -5.881027709118618 0 0  -5.684886171457601 0 0  -5.488744633796326 0 0  -5.292603096133517 0 0  -5.096461558470562 0 0  -4.900320020807607 0 0  -4.704178483144653 0 0  -4.508036945481698 0 0  -4.311895407818743 0 0  -4.115753870155789 0 0  -3.919612332492834 0 0  -3.723470794829879 0 0  -3.527329257166925 0 0  -3.331187719503974 0 0  -3.13504618184102 0 0  -2.939177892941461 0 0  -2.749568302577279 0 0  -2.568352976632339 0 0  -2.395135760334412 0 0  -2.229537936908323 0 0  -2.071197249081669 0 0  -1.919767311262971 0 0  -1.774916622647243 0 0  -1.63632798042406 0 0  -1.50369776993761 0 0  -1.376735313246398 0 0  -1.256939130122111 0 0  -1.164977919604254 0 0  -1.099197615166297 0 0  -1.049035384415253 0 0  -0.9511875000001453 0 0  -0.9023750000002907 0 0  -0.8535625000003796 0 0  -0.8047500000004382 0 0  -0.7559375000004448 0 0  -0.7071250000005684 0 0  -0.6583125000007137 0 0  -0.609500000000859 0 0  -0.5606875000010043 0 0  -0.5118750000011497 0 0  -0.463062500001295 0 0  -0.4142500000014403 0 0  -0.3654375000015856 0 0  -0.3166250000017309 0 0  -0.2678125000018546 0 0  -0.2190000000019783 0 0  -0.1701875000021238 0 0  -0.1213750000022692 0 0  -0.07256250000241493 0 0  -0.0237500000025388 0 0  0.02506249999757215 0 0  0.07387499999770442 0 0  0.1226874999978367 0 0  0.1714999999979692 0 0  0.2203124999981017 0 0  0.2691249999982339 0 0  0.3179374999983662 0 0  0.3667499999984987 0 0  0.4155624999986309 0 0  0.4643749999987199 0 0  0.5131874999988091 0 0  0.5619999999989413 0 0  0.6108124999990736 0 0  0.6596249999992061 0 0  0.7084374999993384 0 0  0.7572499999994708 0 0  0.8060624999996033 0 0  0.8548749999997356 0 0  0.9036874999998679 0 0  0.9549173928314052 0.04834785662810361 0  0.9572234637510991 0.09446927502198293 0  0.959423308608826 0.1384661721765194 0  0.961521819999543 0.1804363999908603 0  0.9635236657377426 0.2204733147548523 0  0.965433299304485 0.2586659860896992 0  0.9672549678075555 0.2950993561511104 0  0.9689927235724188 0.329854471448377 0  0.9706504317027127 0.3630086340542535 0  0.9722317792147558 0.3946355842951147 0  0.9737402846115558 0.4248056922311155 0  0.9751793021018872 0.4535860420377439 0  0.9765520331494055 0.4810406629881107 0  0.9778615309606434 0.5072306192128683 0  0.9791107082467546 0.5322141649350919 0  0.9803023439007181 0.5560468780143618 0  0.9814390882706492 0.5787817654129841 0  0.9825234698938321 0.6004693978766413 0  0.983557900666056 0.6211580133211199 0  0.9845446817579071 0.6408936351581415 0  0.9854860081262611 0.6597201625252224 0  0.9863839732703714 0.677679465407429 0  0.9872405747673146 0.6948114953462936 0  0.9880577180250146 0.7111543605002935 0  0.988837220675993 0.7267444135198597 0  0.9895808165280437 0.7416163305608754 0  0.9902901594400745 0.7558031888014906 0  0.9909668273402722 0.7693365468054433 0  0.9916123253905016 0.7822465078100322 0  0.992228089322461 0.7945617864492202 0  0.9928154888984736 0.8063097779694727 0  0.9933758306025743 0.8175166120514858 0  0.9939103608134926 0.8282072162698516 0  0.9944202685923504 0.838405371847009 0  0.9949066881305013 0.8481337626100257 0  0.9953707013024522 0.8574140260490447 0  0.9958133403338698 0.8662668066773966 0  0.9962355896215802 0.874711792431604 0  0.9966383885850199 0.8827677717003962 0  0.9970226332355453 0.8904526647109064 0  0.9973810011725871 0.8976200234517416 0  0.9976515245939315 0.9030304918786295 0  0.9978863721345377 0.9077274426907546 0  0.9981212196751437 0.9124243935028737 0  0.9983560672157502 0.9171213443150052 0  0.9985909147563571 0.9218182951271425 0  0.9988257622969644 0.926515245939289 0  0.9990606098375717 0.9312121967514357 0  0.999295457378179 0.9359091475635821 0  0.9995303049187865 0.9406060983757288 0  0.9997651524593933 0.9453030491878673 0  1.00023484747945 0.9453030504110064 0  1.000469694958899 0.9406061008220123 0  1.000704542438349 0.9359091512330184 0  1.000939389917798 0.931212201644036 0  1.001174237397247 0.9265152520550557 0  1.001409084876696 0.9218183024660754 0  1.001643932356146 0.9171213528770858 0  1.001878779835595 0.9124244032880919 0  1.002113627315045 0.907727453699098 0  1.002348474794495 0.9030305041101094 0  1.002618997915703 0.8976200416859501 0  1.002977365591893 0.8904526881621491 0  1.003361610083261 0.8827677983347728 0  1.003764408874976 0.8747118225004775 0  1.004186657977326 0.8662668404534918 0  1.004629296809568 0.8574140638086457 0  1.005093309766678 0.8481338046664357 0  1.005579729073468 0.8384054185306302 0  1.006089636603591 0.8282072679281824 0  1.006624166547543 0.8175166690491324 0  1.007184507964099 0.8063098407180234 0  1.007771907232486 0.7945618553502881 0  1.008387670833428 0.78224658333145 0  1.009033168529782 0.7693366294043538 0  1.009709836049617 0.755803279007667 0  1.010419178555365 0.7416164288927061 0  1.011162773970781 0.7267445205843861 0  1.011942276156321 0.7111544768735878 0  1.012759418915044 0.6948116216991302 0  1.013616019877976 0.677679602440491 0  1.014513984451545 0.6597203109691103 0  1.015455310211333 0.6408937957733505 0  1.016442090652748 0.6211581869450444 0  1.017476520728535 0.6004695854292965 0  1.018560901609849 0.5787819678030164 0  1.019697645188209 0.5560470962358199 0  1.020889279998978 0.532214400020448 0  1.022138456382934 0.5072308723413297 0  1.02344795323626 0.4810409352747998 0  1.024820683259656 0.4535863348068799 0  1.026259699660003 0.4248060067999341 0  1.027768203894117 0.3946359221176616 0  1.029349550171164 0.3630089965767126 0  1.031007256983863 0.3298548603227385 0  1.032745011345542 0.2950997730891691 0  1.034566678356847 0.258666432863055 0  1.03647631033356 0.2204737933288 0  1.038478154380048 0.18043691239904 0  1.040576663980932 0.1384667203813595 0  1.042776506926349 0.09446986147302272 0  1.045082575814249 0.04834848371501344 0  1.097137500843385 0 0  1.147013615385393 0 0  1.197250636979773 0 0  1.24797147589595 0 0  1.299299872137887 0 0  1.351360624353073 0 0  1.404279814717878 0 0  1.458185075430549 0 0  1.513205783615218 0 0  1.56947340126322 0 0  1.627121698719749 0 0  1.686287116450538 0 0  1.74710880454872 0 0  1.80972934839412 0 0  1.874294858697211 0 0  1.940955221178581 0 0  2.009864605893176 0 0  2.081181746464038 0 0  2.155070333199603 0 0  2.231699437253408 0 0  2.311243800552664 0 0  2.393884338431207 0 0  2.479808568723427 0 0  2.569210940626538 0 0  2.662293433705642 0 0  2.759265908256055 0 0  2.860346656180274 0 0  2.965762885914615 0 0  3.075751231245027 0 0  3.19055833466445 0 0  3.310441378518669 0 0  3.435668638360885 0 0  3.566520166200541 0 0  3.703288415933228 0 0  3.8462787758223 0 0  3.995810520644916 0 0  4.15221721211508 0 0  4.31584776770763 0 0  4.487066932064819 0 0  4.666256346432944 0 0  4.853815267483814 0 0  5.04971196510908 0 0  5.247723486503665 0 0  5.445735007898287 0 0  5.643746529293535 0 0  5.841758050689592 0 0  6.039769572085393 0 0  6.237781093480764 0 0  6.43579261487687 0 0  6.633804136272499 0 0  6.83181565766804 0 0  7.029827179064146 0 0  7.227838700459605 0 0  7.425850221855317 0 0  7.623861743251418 0 0  7.821873264646711 0 0  8.019884786042713 0 0  8.217896307438872 0 0  8.415907828834163 0 0  8.613919350230043 0 0  8.811930871625798 0 0  9.009942393021214 0 0  9.207953914416738 0 0  9.405965435812732 0 0  9.603976957208836 0 0  9.801988478604187 0 0  10 0.1999999999995579 0  10 0.3999999999989749 0  10 0.5999999999989468 0  10 0.7999999999994734 0  9.800575996776031 1 0  9.601151993552062 1 0  9.401727990328094 1 0  9.202303987104125 1 0  9.002879983880156 1 0  8.803455980656187 1 0  8.604031977432218 1 0  8.40460797420825 1 0  8.205183970984281 1 0  8.005759967760312 1 0  7.806335964536344 1 0  7.60691196131243 1 0  7.407487958088888 1 0  7.208063954865734 1 0  7.008639951642651 1 0  6.809215948419568 1 0  6.609791945196485 1 0  6.410367941973401 1 0  6.210943938750319 1 0  6.011519935527235 1 0  5.812095932304152 1 0  5.612671929081069 1 0  5.413247925857986 1 0  5.213823922634902 1 0  5.015243811921192 1 0  4.82435956465779 1 0  4.642328595289649 1 0  4.468740258785571 1 0  4.303202825842178 1 0  4.145342831167929 1 0  3.994804153950566 1 0  3.8512471484775 1 0  3.714347926054283 1 0  3.583797600332654 1 0  3.459301639331763 1 0  3.340579154667353 1 0  3.227362295170822 1 0  3.119395607879967 1 0  3.016435507943106 1 0  2.918249705556917 1 0  2.824616648174518 1 0  2.7353251101607 1 0  2.650173576439188 1 0  2.568969972376384 1 0  2.491531073154755 1 0  2.417682139602779 1 0  2.347256551205183 1 0  2.280095399177634 1 0  2.216047144131189 1 0  2.154967264670362 1 0  2.096717936489315 1 0  2.041167716830921 1 0  1.988191244259683 1 0  1.937668987932621 1 0  1.88948691248514 1 0  1.843536273225745 1 0  1.799713381735112 1 0  1.757919304409434 1 0  1.718059692679169 1 0  1.680044580871252 1 0  1.643788130897317 1 0  1.609208471979626 1 0  1.576227510650078 1 0  1.54477075146224 1 0  1.514767118537957 1 0  1.486148811166045 1 0  1.458851131196843 1 0  1.432812347986726 1 0  1.407973559295883 1 0  1.384278527233327 1 0  1.361673597288288 1 0  1.340107523681787 1 0  1.319531371942366 1 0  1.299898405239752 1 0  1.281163982429543 1 0  1.263285413268653 1 0  1.246221889667353 1 0  1.229934357922094 1 0  1.214385438433801 1 0  1.199539302820845 
[...]
<PointData  Tensors="f_2706"> 
<DataArray  type="Float64"  Name="f_2706"  NumberOfComponents="9" format="ascii">-6.3906186442377463e-03 -2.7533006421979467e-02 0.0000000000000000e+00 -2.7533006421979467e-02 -9.9583264021103540e-02 0.0000000000000000e+00 0.0000000000000000e+00 0.0000000000000000e+00 0.0000000000000000e+00  -9.4572398553598214e-01 1.2091835080680709e-01 0.0000000000000000e+00 1.2091835080680709e-01 2.1567336502853288e-01 0.0000000000000000e+00 0.0000000000000000e+00 0.0000000000000000e+00 0.0000000000000000e+00  2.3026802393836063e-01 2.4910654002138946e-01 0.0000000000000000e+00 2.4910654002138946e-01 -1.3363183094856625e+00 0.0000000000000000e+00 0.0000000000000000e+00 0.0000000000000000e+00 0.0000000000000000e+00  -2.5649304689847958e+00 5.5282572539367392e-01 0.0000000000000000e+00 5.5282572539367392e-01 2.2278151374145669e-01 0.0000000000000000e+00 0.0000000000000000e+00 0.0000000000000000e+00 0.0000000000000000e+00  2.9325303051219004e-01 -2.7310127828406305e-02 0.0000000000000000e+00 -2.7310127828406305e-02 -9.4651007118245492e-02 0.0000000000000000e+00 0.0000000000000000e+00 0.0000000000000000e+00 0.0000000000000000e+00  6.4324495863106058e-03 -2.7548799449905258e-02 0.0000000000000000e+00 -2.7548799449905258e-02 9.9216409719167661e-02 0.0000000000000000e+00 0.0000000000000000e+00 0.0000000000000000e+00 0.0000000000000000e+00  2.7088577182969418e-04 -2.0618976896796527e-04 0.0000000000000000e+00 -2.0618976896796527e-04 2.3078893397704555e-05 0.0000000000000000e+00 0.0000000000000000e+00 0.0000000000000000e+00 0.0000000000000000e+00  -2.7088657963635803e-04 -2.0619057295776102e-04 0.0000000000000000e+00 -2.0619057295776102e-04 -2.3079936969315148e-05 0.0000000000000000e+00 0.0000000000000000e+00 0.0000000000000000e+00 0.0000000000000000e+00  -2.1514600922612495e-02 -2.9326630217651938e-02 0.0000000000000000e+00 -2.9326630217651938e-02 -2.6484179048501415e-02 0.0000000000000000e+00 0.0000000000000000e+00 0.0000000000000000e+00 0.0000000000000000e+00  -2.2099241340924815e-02 -2.9423004475017393e-02 0.0000000000000000e+00 -2.9423004475017393e-02 -1.0540544295826834e-02 0.0000000000000000e+00 0.0000000000000000e+00 0.0000000000000000e+00 0.0000000000000000e+00  -2.5467905053812776e-02 -2.9424915522128725e-02 0.0000000000000000e+00 -2.9424915522128725e-02 -4.0663627423032419e-03 0.0000000000000000e+00 0.0000000000000000e+00 0.0000000000000000e+00 0.0000000000000000e+00  -2.9335437382906754e-02 -2.9427209294577393e-02 0.0000000000000000e+00 -2.9427209294577393e-02 -7.6488351284809911e-04 0.0000000000000000e+00 0.0000000000000000e+00 0.0000000000000000e+00 0.0000000000000000e+00  -3.3539248589985665e-02 -2.9426970385464799e-02 0.0000000000000000e+00 -2.9426970385464799e-02 8.0088430375145007e-04 0.0000000000000000e+00 0.0000000000000000e+00 0.0000000000000000e+00 0.0000000000000000e+00  -3.8027554419504242e-02 -2.9427302563400863e-02 0.0000000000000000e+00 -2.9427302563400863e-02 1.4303970951758979e-03 0.0000000000000000e+00 0.0000000000000000e+00 0.0000000000000000e+00 0.0000000000000000e+00  -4.2776332242644204e-02 -2.9427163900805998e-02 0.0000000000000000e+00 -2.9427163900805998e-02 1.5140150750625957e-03 0.0000000000000000e+00 0.0000000000000000e+00 0.0000000000000000e+00 0.0000000000000000e+00  -4.7769477882176281e-02 -2.9426661861333126e-02 0.0000000000000000e+00 -2.9426661861333126e-02 1.3454031856944485e-03 0.0000000000000000e+00 0.0000000000000000e+00 0.0000000000000000e+00 0.0000000000000000e+00  -5.2971551753661146e-02 -2.9426879991209885e-02 0.0000000000000000e+00 -2.9426879991209885e-02 1.0791740713376626e-03 0.0000000000000000e+00 0.0000000000000000e+00 0.0000000000000000e+00 0.0000000000000000e+00  -5.8345992021924205e-02 -2.9427050276182205e-02 0.0000000000000000e+00 -2.9427050276182205e-02 8.0642807126681058e-04 0.0000000000000000e+00 0.0000000000000000e+00 0.0000000000000000e+00 0.0000000000000000e+00  -6.3852758723259143e-02 -2.9427144520106262e-02 0.0000000000000000e+00 -2.9427144520106262e-02 5.6948827198478457e-04 0.0000000000000000e+00 0.0000000000000000e+00 0.0000000000000000e+00 0.0000000000000000e+00  -6.9455747241108839e-02 -2.9427224343904820e-02 0.0000000000000000e+00 -2.9427224343904820e-02 3.8256607584262090e-04 0.0000000000000000e+00 0.0000000000000000e+00 0.0000000000000000e+00 0.0000000000000000e+00  -7.5125499904357906e-02 -2.9427266592696445e-02 0.0000000000000000e+00 -2.9427266592696445e-02 2.4481043393437388e-04 0.0000000000000000e+00 0.0000000000000000e+00 0.0000000000000000e+00 0.0000000000000000e+00  -8.0839258943352338e-02 -2.9427408023478516e-02 0.0000000000000000e+00 -2.9427408023478516e-02 1.4903085652735048e-04 0.0000000000000000e+00 0.0000000000000000e+00 0.0000000000000000e+00 0.0000000000000000e+00  -8.6581414934160203e-02 -2.9427324784452709e-02 0.0000000000000000e+00 -2.9427324784452709e-02 8.4866716711285464e-05 0.0000000000000000e+00 0.0000000000000000e+00 0.0000000000000000e+00 0.0000000000000000e+00  -9.2339991641572805e-02 -2.9427326753451249e-02 0.0000000000000000e+00 -2.9427326753451249e-02 4.4596713946567553e-05 0.0000000000000000e+00 0.0000000000000000e+00 0.0000000000000000e+00 0.0000000000000000e+00  -9.8107972130996576e-02 -2.9427304017131155e-02 0.0000000000000000e+00 -2.9427304017131155e-02 2.0163408634339223e-05 0.0000000000000000e+00 0.0000000000000000e+00 0.0000000000000000e+00 0.0000000000000000e+00  -1.0388050122954051e-01 -2.9427290130767128e-02 0.0000000000000000e+00 -2.9427290130767128e-02 6.2019998853565505e-06 0.0000000000000000e+00 0.0000000000000000e+00 0.0000000000000000e+00 0.0000000000000000e+00  -1.0965490733993426e-01 -2.9427287363880894e-02 0.0000000000000000e+00 -2.9427287363880894e-02 -1.6372092266588182e-06 0.0000000000000000e+00 0.0000000000000000e+00 0.0000000000000000e+00 0.0000000000000000e+00  -1.1542950562524640e-01 -2.9427285554590094e-02 0.0000000000000000e+00 -2.9427285554590094e-02 -6.3501800827560779e-06 0.0000000000000000e+00 0.0000000000000000e+00 0.0000000000000000e+00 0.0000000000000000e+00  -1.2120324368287226e-01 -2.9427283032174269e-02 0.0000000000000000e+00 -2.9427283032174269e-02 -1.0133166888816415e-05 0.0000000000000000e+00 0.0000000000000000e+00 0.0000000000000000e+00 0.0000000000000000e+00  -1.2697531807773854e-01 -2.9427290058428094e-02 0.0000000000000000e+00 -2.9427290058428094e-02 -1.4672708183757673e-05 0.0000000000000000e+00 0.0000000000000000e+00 0.0000000000000000e+00 0.0000000000000000e+00  -1.3274478504230736e-01 -2.9427285347416232e-02 0.0000000000000000e+00 -2.9427285347416232e-02 -2.1215003623208751e-05 0.0000000000000000e+00 0.0000000000000000e+00 0.0000000000000000e+00 0.0000000000000000e+00  -1.3851048845852376e-01 -2.9427295771525863e-02 0.0000000000000000e+00 -2.9427295771525863e-02 -3.1054622752436212e-05 0.0000000000000000e+00 0.0000000000000000e+00 0.0000000000000000e+00 0.0000000000000000e+00  -1.4427078516324779e-01 -2.9427282503936041e-02 0.0000000000000000e+00 -2.9427282503936041e-02 -4.4733475123536922e-05 0.0000000000000000e+00 0.0000000000000000e+00 0.0000000000000000e+00 0.0000000000000000e+00  -1.5002343372503793e-01 -2.9427299865047621e-02 0.0000000000000000e+00 -2.9427299865047621e-02 -6.3004741823200600e-05 0.0000000000000000e+00 0.0000000000000000e+00 0.0000000000000000e+00 0.0000000000000000e+00  -1.5576581838658213e-01 -2.9427289810002727e-02 0.0000000000000000e+00 -2.9427289810002727e-02 -8.4185927186650951e-05 0.0000000000000000e+00 0.0000000000000000e+00 0.0000000000000000e+00 0.0000000000000000e+00  -1.6149499495958036e-01 -2.9427287735001195e-02 0.0000000000000000e+00 -2.9427287735001195e-02 -1.0605034102470150e-04 0.0000000000000000e+00 0.0000000000000000e+00 0.0000000000000000e+00 0.0000000000000000e+00  -1.6720857286393451e-01 -2.9427275799001926e-02 0.0000000000000000e+00 -2.9427275799001926e-02 -1.2115137681526851e-04 0.0000000000000000e+00 0.0000000000000000e+00 0.0000000000000000e+00 0.0000000000000000e+00  -1.7290644010198417e-01 -2.9427198081358658e-02 0.0000000000000000e+00 -2.9427198081358658e-02 -1.1470726553493451e-04 0.0000000000000000e+00 0.0000000000000000e+00 0.0000000000000000e+00 0.0000000000000000e+00  -1.7859263534729541e-01 -2.9427149375081386e-02 0.0000000000000000e+00 -2.9427149375081386e-02 -6.2560333605905363e-05 0.0000000000000000e+00 0.0000000000000000e+00 0.0000000000000000e+00 0.0000000000000000e+00  -1.8428252734310407e-01 -2.9426921297013620e-02 0.0000000000000000e+00 -2.9426921297013620e-02 7.7870366861122276e-05 0.0000000000000000e+00 0.0000000000000000e+00 0.0000000000000000e+00 0.0000000000000000e+00  -1.9000506452941548e-01 -2.9426770960010760e-02 0.0000000000000000e+00 -2.9426770960010760e-02 3.7258087118652414e-04 0.0000000000000000e+00 0.0000000000000000e+00 0.0000000000000000e+00 0.0000000000000000e+00  -1.9582452527457594e-01 -2.9426552698014304e-02 0.0000000000000000e+00 -2.9426552698014304e-02 9.1957991226644187e-04 0.0000000000000000e+00 0.0000000000000000e+00 0.0000000000000000e+00 0.0000000000000000e+00  -2.0184077273514200e-01 -2.9425282263383614e-02 0.0000000000000000e+00 -2.9425282263383614e-02 1.8674528184097702e-03 0.0000000000000000e+00 0.0000000000000000e+00 0.0000000000000000e+00 0.0000000000000000e+00  -2.0822896463327054e-01 -2.9426380380407711e-02 0.0000000000000000e+00 -2.9426380380407711e-02 3.3952124762548544e-03 0.0000000000000000e+00 0.0000000000000000e+00 0.0000000000000000e+00 0.0000000000000000e+00  -2.1502345081067464e-01 -2.9426738392060857e-02 0.0000000000000000e+00 -2.9426738392060857e-02 5.6693332475534937e-03 0.0000000000000000e+00 0.0000000000000000e+00 0.0000000000000000e+00 0.0000000000000000e+00  -2.2244006312539633e-01 -2.9423544866635797e-02 0.0000000000000000e+00 -2.9423544866635797e-02 8.8089330981407036e-03 0.0000000000000000e+00 0.0000000000000000e+00 0.0000000000000000e+00 0.0000000000000000e+00  -2.3079297755928005e-01 -2.9422819927760142e-02 0.0000000000000000e+00 -2.9422819927760142e-02 1.2949186365499982e-02 0.0000000000000000e+00 0.0000000000000000e+00 0.0000000000000000e+00 0.0000000000000000e+00  -2.4051140534900864e-01 -2.9426468529748888e-02 0.0000000000000000e+00 -2.9426468529748888e-02 1.8093605169121826e-02 0.0000000000000000e+00 0.0000000000000000e+00 0.0000000000000000e+00 0.0000000000000000e+00  -2.5205250550527175e-01 -2.9435787714210848e-02 0.0000000000000000e+00 -2.9435787714210848e-02 2.4233356090389513e-02 0.0000000000000000e+00 0.0000000000000000e+00 0.0000000000000000e+00 0.0000000000000000e+00  -2.6594825786858062e-01 -2.9432184165994864e-02 0.0000000000000000e+00 -2.9432184165994864e-02 3.1321698074249109e-02 0.0000000000000000e+00 0.0000000000000000e+00 0.0000000000000000e+00 0.0000000000000000e+00  -2.8295284498179668e-01 -2.9433447023224511e-02 0.0000000000000000e+00 -2.9433447023224511e-02 3.9188520926270801e-02 0.0000000000000000e+00 0.0000000000000000e+00 0.0000000000000000e+00 0.0000000000000000e+00  -3.0422065988035701e-01 -2.9433763724011974e-02 0.0000000000000000e+00 -2.9433763724011974e-02 4.7717557860619118e-02 0.0000000000000000e+00 0.0000000000000000e+00 0.0000000000000000e+00 0.0000000000000000e+00  -3.3151959890805155e-01 -2.9431336942104581e-02 0.0000000000000000e+00 -2.9431336942104581e-02 5.6881217917374077e-02 0.0000000000000000e+00 0.0000000000000000e+00 0.0000000000000000e+00 0.0000000000000000e+00  -3.6817051474714840e-01 -2.9425203068959804e-02 0.0000000000000000e+00 -2.9425203068959804e-02 6.6880564680623714e-02 0.0000000000000000e+00 0.0000000000000000e+00 0.0000000000000000e+00 0.0000000000000000e+00  -4.2051082509566856e-01 -2.9407871885177253e-02 0.0000000000000000e+00 -2.9407871885177253e-02 7.8244047336417835e-02 0.0000000000000000e+00 0.0000000000000000e+00 0.0000000000000000e+00 0.0000000000000000e+00  -4.8521692730335536e-01 -2.9434565724104807e-02 0.0000000000000000e+00 -2.9434565724104807e-02 8.9983706265426913e-02 0.0000000000000000e+00 0.0000000000000000e+00 0.0000000000000000e+00 0.0000000000000000e+00  -5.6293568276729200e-01 -2.9294831248484993e-02 0.0000000000000000e+00 -2.9294831248484993e-02 1.0310840914350422e-01 0.0000000000000000e+00 0.0000000000000000e+00 0.0000000000000000e+00 0.0000000000000000e+00  -6.8809351334197311e-01 -3.4362377931101459e-02 0.0000000000000000e+00 -3.4362377931101459e-02 1.1066061854283260e-01 0.0000000000000000e+00 0.0000000000000000e+00 0.0000000000000000e+00 0.0000000000000000e+00  -6.7955695989367304e-01 2.7506972981515482e-01 0.0000000000000000e+00 2.7506972981515482e-01 1.1044054255544929e-01 0.0000000000000000e+00 0.0000000000000000e+00 0.0000000000000000e+00 0.0000000000000000e+00  -5.4320417776430141e-01 2.7072440679815563e-01 0.0000000000000000e+00 2.7072440679815563e-01 1.0278430252497719e-01 0.0000000000000000e+00 0.0000000000000000e+00 0.0000000000000000e+00 0.0000000000000000e+00  -4.6851581629830086e-01 2.7062180774800221e-01 0.0000000000000000e+00 2.7062180774800221e-01 9.2794046272089203e-02 0.0000000000000000e+00 0.0000000000000000e+00 0.0000000000000000e+00 0.0000000000000000e+00  -4.1421871108572578e-01 2.7059347752465013e-01 0.0000000000000000e+00 2.7059347752465013e-01 8.5154606605440206e-02 0.0000000000000000e+00 0.0000000000000000e+00 0.0000000000000000e+00 0.0000000000000000e+00  -3.7067670743587855e-01 2.7058333530253742e-01 0.0000000000000000e+00 2.7058333530253742e-01 7.8839383264693280e-02 0.0000000000000000e+00 0.0000000000000000e+00 0.0000000000000000e+00 0.0000000000000000e+00  -3.3383704526458524e-01 2.7057836234987659e-01 0.0000000000000000e+00 2.7057836234987659e-01 7.3313546953546485e-02 0.0000000000000000e+00 0.0000000000000000e+00 0.0000000000000000e+00 0.0000000000000000e+00  -3.0157378091879428e-01 2.7057615275123731e-01 0.0000000000000000e+00 2.7057615275123731e-01 6.8280723763389561e-02 0.0000000000000000e+00 0.0000000000000000e+00 0.0000000000000000e+00 0.0000000000000000e+00  -2.7262301507472214e-01 2.7057488952701320e-01 0.0000000000000000e+00 2.7057488952701320e-01 6.3564264178197161e-02 0.0000000000000000e+00 0.0000000000000000e+00 0.0000000000000000e+00 0.0000000000000000e+00  -2.4617310335999132e-01 2.7057409336038041e-01 0.0000000000000000e+00 2.7057409336038041e-01 5.9052189730176972e-02 0.0000000000000000e+00 0.0000000000000000e+00 0.0000000000000000e+00 0.0000000000000000e+00  -2.2167146592026415e-01 2.7057382233594979e-01 0.0000000000000000e+00 2.7057382233594979e-01 5.4667902667449204e-02 0.0000000000000000e+00 0.0000000000000000e+00 0.0000000000000000e+00 0.0000000000000000e+00  -1.9872521126218062e-01 2.7057360315584555e-01 0.0000000000000000e+00 2.7057360315584555e-01 5.0359126048892672e-02 0.0000000000000000e+00 0.0000000000000000e+00 0.0000000000000000e+00 0.0000000000000000e+00  -1.7704561667189636e-01 2.7057342063844403e-01 0.0000000000000000e+00 2.7057342063844403e-01 4.6088620524623286e-02 0.0000000000000000e+00 0.0000000000000000e+00 0.0000000000000000e+00 0.0000000000000000e+00  -1.5641491723755280e-01 2.7057330772078403e-01 0.0000000000000000e+00 2.7057330772078403e-01 4.1828502319848263e-02 0.0000000000000000e+00 0.0000000000000000e+00 0.0000000000000000e+00 0.0000000000000000e+00  -1.3666497504448508e-01 2.7057316174477186e-01 0.0000000000000000e+00 2.7057316174477186e-01 3.7558735632714432e-02 0.0000000000000000e+00 0.0000000000000000e+00 0.0000000000000000e+00 0.0000000000000000e+00  -1.1766587928111880e-01 2.7057337864254272e-01 0.0000000000000000e+00 2.7057337864254272e-01 3.3264487632313502e-02 0.0000000000000000e+00 0.0000000000000000e+00 0.0000000000000000e+00 0.0000000000000000e+00  -9.9314958314243251e-02 2.7057338203770820e-01 0.0000000000000000e+00 2.7057338203770820e-01 2.8932736482639734e-02 0.0000000000000000e+00 0.0000000000000000e+00 0.0000000000000000e+00 0.0000000000000000e+00  -8.1530122331817556e-02 2.7057292157414847e-01 0.0000000000000000e+00 2.7057292157414847e-01 2.4559060340672061e-02 0.0000000000000000e+00 0.0000000000000000e+00 0.0000000000000000e+00 0.0000000000000000e+00  -6.4251932330860406e-02 2.7057284790308955e-01 0.0000000000000000e+00 2.7057284790308955e-01 2.0135867746427255e-02 0.0000000000000000e+00 0.0000000000000000e+00 0.0000000000000000e+00 0.0000000000000000e+00  -4.7435039393954721e-02 2.7057280022665803e-01 0.0000000000000000e+00 2.7057280022665803e-01 1.5661086484519918e-02 0.0000000000000000e+00 0.0000000000000000e+00 0.0000000000000000e+00 0.0000000000000000e+00  -3.1049087360768841e-02 2.7057267113129096e-01 0.0000000000000000e+00 2.7057267113129096e-01 1.1134202697245242e-02 0.0000000000000000e+00 0.0000000000000000e+00 0.0000000000000000e+00 0.0000000000000000e+00  -1.5080327813466526e-02 2.7057276759475463e-01 0.0000000000000000e+00 2.7057276759475463e-01 6.5548417374552389e-03 0.0000000000000000e+00 0.0000000000000000e+00 0.0000000000000000e+00 0.0000000000000000e+00  4.7172246088903944e-04 2.7057284166468976e-01 0.0000000000000000e+00 2.7057284166468976e-01 1.9232577161108198e-03 0.0000000000000000e+00 0.0000000000000000e+00 0.0000000000000000e+00 0.0000000000000000e+00  1.5591914399952734e-02 2.7057305964139011e-01 0.0000000000000000e+00 2.7057305964139011e-01 -2.7590829363353187e-03 0.0000000000000000e+00 0.0000000000000000e+00 0.0000000000000000e+00 0.0000000000000000e+00  3.0247456178428899e-02 2.7057242170641288e-01 0.0000000000000000e+00 2.7057242170641288e-01 -7.5030717014037979e-03 0.0000000000000000e+00 0.0000000000000000e+00 0.0000000000000000e+00 0.0000000000000000e+00  4.4391613501199266e-02 2.7057216175137555e-01 0.0000000000000000e+00 2.7057216175137555e-01 -1.2319773701934107e-02 0.0000000000000000e+00 0.0000000000000000e+00 0.0000000000000000e+00 0.0000000000000000e+00  5.7957128473475263e-02 2.7057189250368746e-01 0.0000000000000000e+00 2.7057189250368746e-01 -1.7242807036065632e-02 0.0000000000000000e+00 0.0000000000000000e+00 0.0000000000000000e+00 0.0000000000000000e+00  7.0858899400006975e-02 2.7057138530833152e-01 0.0000000000000000e+00 2.7057138530833152e-01 -2.2331843121046101e-02 0.0000000000000000e+00 0.0000000000000000e+00 0.0000000000000000e+00 0.0000000000000000e+00  8.2995907440508068e-02 2.7057098248942063e-01 0.0000000000000000e+00 2.7057098248942063e-01 -2.7689210168096771e-02 0.0000000000000000e+00 0.0000000000000000e+00 0.0000000000000000e+00 0.0000000000000000e+00  9.4248348191092721e-02 2.7057024454564726e-01 0.0000000000000000e+00 2.7057024454564726e-01 -3.3486293057357619e-02 0.0000000000000000e+00 0.0000000000000000e+00 0.0000000000000000e+00 0.0000000000000000e+00  1.0448117854155392e-01 2.7056936233041234e-01 0.0000000000000000e+00 2.7056936233041234e-01 -3.9995865402396316e-02 0.0000000000000000e+00 0.0000000000000000e+00 0.0000000000000000e+00 0.0000000000000000e+00  1.1354870268185671e-01 2.7056855354192472e-01 0.0000000000000000e+00 2.7056855354192472e-01 -4.7647401463143113e-02 0.0000000000000000e+00 0.0000000000000000e+00 0.0000000000000000e+00 0.0000000000000000e+00  1.2129351804086934e-01 2.7056575334241040e-01 0.0000000000000000e+00 2.7056575334241040e-01 -5.7109790185184910e-02 0.0000000000000000e+00 0.0000000000000000e+00 0.0000000000000000e+00 0.0000000000000000e+00  1.2755999593997730e-01 2.7056123553956429e-01 0.0000000000000000e+00 2.7056123553956429e-01 -6.9417422265420622e-02 0.0000000000000000e+00 0.0000000000000000e+00 0.0000000000000000e+00 0.0000000000000000e+00  1.3219614258641540e-01 2.7055562821698464e-01 0.0000000000000000e+00 2.7055562821698464e-01 -8.6206243651413217e-02 0.0000000000000000e+00 0.0000000000000000e+00 0.0000000000000000e+00 0.0000000000000000e+00  1.3500729251977750e-01 2.7054003525823461e-01 0.0000000000000000e+00 2.7054003525823461e-01 -1.1014602342729947e-01 0.0000000000000000e+00 0.0000000000000000e+00 0.0000000000000000e+00 0.0000000000000000e+00  1.3577079643880660e-01 2.7050989853412355e-01 0.0000000000000000e+00 2.7050989853412355e-01 -1.4581796659470775e-01 0.0000000000000000e+00 0.0000000000000000e+00 0.0000000000000000e+00 0.0000000000000000e+00  1.3452931876372912e-01 2.7061539091238307e-01 0.0000000000000000e+00 2.7061539091238307e-01 -2.0149100303497539e-01 