<?xml version="1.0"?>
<VTKFile type="UnstructuredGrid"  version="0.1"  >
<UnstructuredGrid>
<Piece  NumberOfPoints="5295" NumberOfCells="10023">
<Points>
<DataArray  type="Float64"  NumberOfComponents="3"  format="ascii">-10 0 0  -1 0 0  0.99 0 0  1 0.3 0  1.01 0 0  10 0 0  10 1 0  -10 1 0  -9.900792126385161 0 0  -9.801584252770324 0 0  -9.702376379155485 0 0  -9.603168505540646 0 0  -9.503960631925809 0 0  -9.40475275831097 0 0  -9.305544884696131 0 0  -9.206337011081294 0 0  -9.107129137466455 0 0  -9.007921263851616 0 0  -8.908713390236779 0 0  -8.80950551662194 0 0  -8.710297643007101 0 0  -8.611089769392263 0 0  -8.511881895777424 0 0  -8.412674022162586 0 0  -8.313466148547747 0 0  -8.214258274932909 0 0  -8.11505040131807 0 0  -8.015842527703231 0 0  -7.916634654088394 0 0  -7.817426780473555 0 0  -7.718218906858717 0 0  -7.619011033243879 0 0  -7.51980315962904 0 0  -7.420595286014202 0 0  -7.321387412399364 0 0  -7.222179538784525 0 0  -7.122971665169687 0 0  -7.023763791554849 0 0  -6.92455591794001 0 0  -6.825348044325172 0 0  -6.726140170710334 0 0  -6.626932297095495 0 0  -6.527724423480657 0 0  -6.428516549865818 0 0  -6.32930867625098 0 0  -6.230100802636141 0 0  -6.130892929021304 0 0  -6.031685055406465 0 0  -5.932477181791627 0 0  -5.833269308176789 0 0  -5.73406143456195 0 0  -5.634853560947112 0 0  -5.535645687332187 0 0  -5.436437813716791 0 0  -5.337229940100989 0 0  -5.238022066485172 0 0  -5.138814192869354 0 0  -5.039606319253536 0 0  -4.940398445637718 0 0  -4.8411905720219 0 0  -4.741982698406082 0 0  -4.642774824790265 0 0  -4.543566951174447 0 0  -4.444359077558629 0 0  -4.345151203942811 0 0  -4.245943330326994 0 0  -4.146735456711175 0 0  -4.047527583095357 0 0  -3.94831970947954 0 0  -3.849111835863722 0 0  -3.749903962247903 0 0  -3.650696088632086 0 0  -3.551488215016268 0 0  -3.452280341400452 0 0  -3.353072467784635 0 0  -3.253864594168817 0 0  -3.154656720553001 0 0  -3.055448846937185 0 0  -2.956240973321368 0 0  -2.857033099705551 0 0  -2.757825226089734 0 0  -2.658617352473917 0 0  -2.559409478858099 0 0  -2.460201605242283 0 0  -2.360993731626467 0 0  -2.261785858010649 0 0  -2.162577984394833 0 0  -2.063370110779015 0 0  -1.964277757454315 0 0  -1.870931019980285 0 0  -1.785874718212659 0 0  -1.708372530102515 0 0  -1.637753561384711 0 0  -1.573406506080589 0 0  -1.514774302263078 0 0  -1.461349419905297 0 0  -1.412669369780119 0 0  -1.368312755261428 0 0  -1.327895599360211 0 0  -1.291068018554981 0 0  -1.257511210057762 0 0  -1.226934696957141 0 0  -1.199073772322665 0 0  -1.173613778825967 0 0  -1.148811810422258 0 0  -1.124009842018548 0 0  -1.099207873614839 0 0  -1.07440590521113 0 0  -1.049603936807419 0 0  -1.024801968403709 0 0  -0.9751250000000466 0 0  -0.950250000000089 0 0  -0.9253750000001399 0 0  -0.9005000000002082 0 0  -0.8756250000002549 0 0  -0.8507500000003014 0 0  -0.8258750000003438 0 0  -0.8010000000003947 0 0  -0.7761250000004327 0 0  -0.751250000000488 0 0  -0.7263750000005216 0 0  -0.7015000000006029 0 0  -0.6766250000006538 0 0  -0.6517500000007482 0 0  -0.6268750000008296 0 0  -0.6020000000009326 0 0  -0.5771250000010137 0 0  -0.5522500000011169 0 0  -0.5273750000011679 0 0  -0.5025000000012579 0 0  -0.4776250000013262 0 0  -0.4527500000013946 0 0  -0.4278750000014629 0 0  -0.4030000000015399 0 0  -0.378125000001643 0 0  -0.3532500000017113 0 0  -0.3283750000017797 0 0  -0.303500000001848 0 0  -0.2786250000019163 0 0  -0.2537500000019847 0 0  -0.228875000002053 0 0  -0.2040000000021214 0 0  -0.1791250000021898 0 0  -0.154250000002258 0 0  -0.1293750000023264 0 0  -0.1045000000023947 0 0  -0.07962500000246309 0 0  -0.05475000000253127 0 0  -0.02987500000259968 0 0  -0.005000000002668092 0 0  0.01987499999740683 0 0  0.04474999999749474 0 0  0.06962499999759975 0 0  0.09449999999766123 0 0  0.1193749999977058 0 0  0.1442499999977502 0 0  0.1691249999978031 0 0  0.193999999997839 0 0  0.2188749999979005 0 0  0.2437499999979276 0 0  0.2686249999979977 0 0  0.2934999999980248 0 0  0.3183749999981302 0 0  0.3432499999982093 0 0  0.3681249999983229 0 0  0.3929999999983935 0 0  0.4178749999985072 0 0  0.4427499999985776 0 0  0.4676249999986914 0 0  0.4924999999987185 0 0  0.5173749999987887 0 0  0.5422499999988157 0 0  0.5671249999988863 0 0  0.5919999999989134 0 0  0.616874999998984 0 0  0.6417499999990111 0 0  0.666624999999073 0 0  0.6914999999991092 0 0  0.7163749999992228 0 0  0.7412499999992936 0 0  0.7661249999994075 0 0  0.7909999999994868 0 0  0.8158749999995922 0 0  0.8407499999996801 0 0  0.8656249999997769 0 0  0.8904999999998044 0 0  0.9153749999998662 0 0  0.9402499999999021 0 0  0.9651249999999556 0 0  0.9908266659200442 0.0247999776013272 0  0.9916533318400882 0.04959995520264598 0  0.9924799977601317 0.07439993280395152 0  0.9933066636801752 0.09919991040525436 0  0.9941333296002187 0.1239998880065612 0  0.9949599955202622 0.1487998656078656 0  0.9957358702365583 0.1720761070967483 0  0.9963952746034702 0.1918582381041076 0  0.9969550670345668 0.2086520110370061 0  0.9974302953999558 0.2229088619986725 0  0.9978337340750729 0.235012022252187 0  0.9981762280629766 0.2452868418892962 0  0.9984669836688744 0.2540095100662346 0  0.9987138167585842 0.2614145027575259 0  0.9989233624279383 0.2677008728381498 0  0.9991012534079601 0.2730376022388039 0  0.9992522715641109 0.2775681469233269 0  0.9993804764146753 0.281414292440259 0  0.9994893141868817 0.2846794256064519 0  0.9995817105836454 0.2874513175093613 0  0.9996601492571014 0.2898044777130428 0  0.9997267387193635 0.2918021615809023 0  0.9997832689462828 0.2934980683884821 0  0.9998312595356017 0.2949377860680523 0  0.9998720004991201 0.2961600149736025 0  0.9999065869938424 0.2971976098152709 0  0.9999359487352397 0.2980784620571907 0  0.9999608749943266 0.2988262498297971 0  0.999982035810372 0.2994610743111623 0  1.000017964189628 0.2994610743111629 0  1.000039125005673 0.2988262498297984 0  1.00006405126476 0.2980784620571931 0  1.000093413006158 0.2971976098152747 0  1.00012799950088 0.2961600149736081 0  1.000168740464398 0.2949377860680603 0  1.000216731053717 0.2934980683884931 0  1.000273261280636 0.2918021615809171 0  1.000339850742898 0.2898044777130624 0  1.000418289416354 0.2874513175093871 0  1.000510685813117 0.2846794256064855 0  1.000619523585323 0.2814142924403082 0  1.000747728435887 0.2775681469233894 0  1.000898746592037 0.2730376022388828 0  1.001076637572058 0.2677008728382509 0  1.001286183241411 0.2614145027576674 0  1.001533016331119 0.2540095100664397 0  1.001823771937014 0.2452868418895742 0  1.002166265924915 0.2350120222525473 0  1.002569704600029 0.2229088619991356 0  1.003044932965413 0.2086520110375969 0  1.003604725396505 0.1918582381048565 0  1.00426412976341 0.1720761070976921 0  1.005040004479699 0.1487998656090173 0  1.00586667039975 0.1239998880075143 0  1.0066933363198 0.09919991040600823 0  1.00752000223985 0.07439993280450816 0  1.0083466681599 0.04959995520300525 0  1.00917333407995 0.02479997760150604 0  1.034873556329395 0 0  1.059747112658791 0 0  1.084620668988189 0 0  1.1094942253176 0 0  1.134367781647011 0 0  1.159241337976421 0 0  1.184500641868059 0 0  1.211998703268877 0 0  1.242185090437893 0 0  1.2753226325279 0 0  1.311699854935851 0 0  1.351633476320564 0 0  1.395471183696896 0 0  1.44359466900135 0 0  1.496422919395849 0 0  1.55441591057513 0 0  1.618078542537118 0 0  1.687965113621654 0 0  1.764684119623638 0 0  1.848903518723409 0 0  1.941356584854953 0 0  2.040461974571454 0 0  2.139956199889206 0 0  2.239450425206928 0 0  2.338944650524491 0 0  2.438438875841982 0 0  2.537933101159314 0 0  2.637427326476588 0 0  2.736921551793913 0 0  2.836415777111398 0 0  2.935910002428955 0 0  3.035404227746671 0 0  3.134898453064436 0 0  3.234392678382086 0 0  3.333886903699418 0 0  3.433381129016693 0 0  3.532875354333967 0 0  3.632369579651242 0 0  3.731863804968648 0 0  3.831358030286371 0 0  3.930852255604137 0 0  4.030346480921903 0 0  4.129840706239596 0 0  4.229334931556972 0 0  4.328829156874247 0 0  4.428323382191522 0 0  4.527817607508796 0 0  4.627311832826159 0 0  4.726806058143838 0 0  4.826300283461604 0 0  4.92579450877937 0 0  5.025288734096904 0 0  5.124782959414178 0 0  5.224277184731454 0 0  5.323771410049047 0 0  5.423265635366813 0 0  5.522759860684578 0 0  5.622254086002346 0 0  5.721748311320313 0 0  5.821242536638572 0 0  5.920736761956828 0 0  6.020230987275085 0 0  6.119725212593342 0 0  6.219219437911571 0 0  6.318713663229483 0 0  6.418207888547248 0 0  6.517702113865013 0 0  6.617196339182925 0 0  6.716690564501153 0 0  6.816184789819411 0 0  6.915679015137667 0 0  7.015173240455925 0 0  7.114667465774183 0 0  7.21416169109215 0 0  7.313655916409915 0 0  7.413150141727683 0 0  7.512644367045549 0 0  7.612138592363734 0 0  7.71163281768199 0 0  7.81112704300025 0 0  7.910621268318506 0 0  8.010115493636647 0 0  8.109609718954472 0 0  8.209103944272238 0 0  8.308598169590002 0 0  8.408092394908348 0 0  8.507586620227096 0 0  8.607080845545845 0 0  8.706575070864593 0 0  8.806069296183342 0 0  8.905563521501945 0 0  9.005057746819913 0 0  9.10455197213768 0 0  9.204046197455444 0 0  9.30354042277321 0 0  9.403034648090978 0 0  9.502528873408744 0 0  9.602023098726509 0 0  9.701517324044275 0 0  9.801011549362503 0 0  9.900505774681251 0 0  10 0.09999999999981467 0  10 0.1999999999995579 0  10 0.2999999999992664 0  10 0.3999999999989749 0  10 0.4999999999986943 0  10 0.5999999999989468 0  10 0.69999999999921 0  10 0.7999999999994734 0  10 0.8999999999997368 0  9.899999999999876 1 0  9.799999999999754 1 0  9.69999999999963 1 0  9.599999999999508 1 0  9.499999999999384 1 0  9.39999999999926 1 0  9.299999999999137 1 0  9.199999999999013 1 0  9.099999999998889 1 0  8.999999999998767 1 0  8.899999999998643 1 0  8.799999999998521 1 0  8.699999999998397 1 0  8.599999999998275 1 0  8.499999999998151 1 0  8.399999999998027 1 0  8.299999999997905 1 0  8.199999999997781 1 0  8.099999999997657 1 0  7.999999999997534 1 0 
[...]
<PointData  Vectors="f_28"> 
<DataArray  type="Float64"  Name="f_28"  NumberOfComponents="3" format="ascii">7.4762644672906340e-05 0.0000000000000000e+00 0.0000000000000000e+00  -3.6534837586092104e-05 0.0000000000000000e+00 0.0000000000000000e+00  -4.8453252038434216e-05 0.0000000000000000e+00 0.0000000000000000e+00  -2.6098754182079668e-05 -8.3709444684088557e-06 0.0000000000000000e+00  -2.1126989898875686e-05 0.0000000000000000e+00 0.0000000000000000e+00  7.9309826826606296e-05 0.0000000000000000e+00 0.0000000000000000e+00  7.3790701574474591e-05 1.4414666434074670e-06 0.0000000000000000e+00  6.9243983336917794e-05 -1.4414667486204001e-06 0.0000000000000000e+00  7.4933479284561904e-05 0.0000000000000000e+00 0.0000000000000000e+00  7.4913671573912860e-05 0.0000000000000000e+00 0.0000000000000000e+00  7.4831985857573300e-05 0.0000000000000000e+00 0.0000000000000000e+00  7.4710612190640393e-05 0.0000000000000000e+00 0.0000000000000000e+00  7.4558319878289723e-05 0.0000000000000000e+00 0.0000000000000000e+00  7.4379538512702828e-05 0.0000000000000000e+00 0.0000000000000000e+00  7.4176880136017076e-05 0.0000000000000000e+00 0.0000000000000000e+00  7.3952045682507391e-05 0.0000000000000000e+00 0.0000000000000000e+00  7.3706193123017770e-05 0.0000000000000000e+00 0.0000000000000000e+00  7.3440100276982791e-05 0.0000000000000000e+00 0.0000000000000000e+00  7.3154248377310484e-05 0.0000000000000000e+00 0.0000000000000000e+00  7.2848878417035268e-05 0.0000000000000000e+00 0.0000000000000000e+00  7.2524038040642155e-05 0.0000000000000000e+00 0.0000000000000000e+00  7.2179624942020226e-05 0.0000000000000000e+00 0.0000000000000000e+00  7.1815426068124171e-05 0.0000000000000000e+00 0.0000000000000000e+00  7.1431153166634582e-05 0.0000000000000000e+00 0.0000000000000000e+00  7.1026473219013638e-05 0.0000000000000000e+00 0.0000000000000000e+00  7.0601033214429536e-05 0.0000000000000000e+00 0.0000000000000000e+00  7.0154479272393886e-05 0.0000000000000000e+00 0.0000000000000000e+00  6.9686471248734828e-05 0.0000000000000000e+00 0.0000000000000000e+00  6.9196690873156325e-05 0.0000000000000000e+00 0.0000000000000000e+00  6.8684849128136113e-05 0.0000000000000000e+00 0.0000000000000000e+00  6.8150688309832582e-05 0.0000000000000000e+00 0.0000000000000000e+00  6.7593982879411772e-05 0.0000000000000000e+00 0.0000000000000000e+00  6.7014538596320571e-05 0.0000000000000000e+00 0.0000000000000000e+00  6.6412190540957267e-05 0.0000000000000000e+00 0.0000000000000000e+00  6.5786800644088080e-05 0.0000000000000000e+00 0.0000000000000000e+00  6.5138254759647093e-05 0.0000000000000000e+00 0.0000000000000000e+00  6.4466459781025795e-05 0.0000000000000000e+00 0.0000000000000000e+00  6.3771340472043215e-05 0.0000000000000000e+00 0.0000000000000000e+00  6.3052837040031897e-05 0.0000000000000000e+00 0.0000000000000000e+00  6.2310902579825310e-05 0.0000000000000000e+00 0.0000000000000000e+00  6.1545500720945563e-05 0.0000000000000000e+00 0.0000000000000000e+00  6.0756603882154025e-05 0.0000000000000000e+00 0.0000000000000000e+00  5.9944191540185643e-05 0.0000000000000000e+00 0.0000000000000000e+00  5.9108248862007198e-05 0.0000000000000000e+00 0.0000000000000000e+00  5.8248765595131110e-05 0.0000000000000000e+00 0.0000000000000000e+00  5.7365735135583616e-05 0.0000000000000000e+00 0.0000000000000000e+00  5.6459153822042190e-05 0.0000000000000000e+00 0.0000000000000000e+00  5.5529020394778460e-05 0.0000000000000000e+00 0.0000000000000000e+00  5.4575335607650481e-05 0.0000000000000000e+00 0.0000000000000000e+00  5.3598101969218846e-05 0.0000000000000000e+00 0.0000000000000000e+00  5.2597323599531202e-05 0.0000000000000000e+00 0.0000000000000000e+00  5.1573006189354566e-05 0.0000000000000000e+00 0.0000000000000000e+00  5.0525157015145597e-05 0.0000000000000000e+00 0.0000000000000000e+00  4.9453785053387846e-05 0.0000000000000000e+00 0.0000000000000000e+00  4.8358901118182927e-05 0.0000000000000000e+00 0.0000000000000000e+00  4.7240518028325797e-05 0.0000000000000000e+00 0.0000000000000000e+00  4.6098650793668838e-05 0.0000000000000000e+00 0.0000000000000000e+00  4.4933316757517695e-05 0.0000000000000000e+00 0.0000000000000000e+00  4.3744535676506414e-05 0.0000000000000000e+00 0.0000000000000000e+00  4.2532329711284729e-05 0.0000000000000000e+00 0.0000000000000000e+00  4.1296723211550317e-05 0.0000000000000000e+00 0.0000000000000000e+00  4.0037742255840135e-05 0.0000000000000000e+00 0.0000000000000000e+00  3.8755413821654980e-05 0.0000000000000000e+00 0.0000000000000000e+00  3.7449764451923482e-05 0.0000000000000000e+00 0.0000000000000000e+00  3.6120818256615886e-05 0.0000000000000000e+00 0.0000000000000000e+00  3.4768594042391066e-05 0.0000000000000000e+00 0.0000000000000000e+00  3.3393101303376031e-05 0.0000000000000000e+00 0.0000000000000000e+00  3.1994334773714859e-05 0.0000000000000000e+00 0.0000000000000000e+00  3.0572267190631346e-05 0.0000000000000000e+00 0.0000000000000000e+00  2.9126839777315624e-05 0.0000000000000000e+00 0.0000000000000000e+00  2.7657950021316155e-05 0.0000000000000000e+00 0.0000000000000000e+00  2.6165436102047481e-05 0.0000000000000000e+00 0.0000000000000000e+00  2.4649057373987387e-05 0.0000000000000000e+00 0.0000000000000000e+00  2.3108470135796111e-05 0.0000000000000000e+00 0.0000000000000000e+00  2.1543197964259247e-05 0.0000000000000000e+00 0.0000000000000000e+00  1.9952596094247369e-05 0.0000000000000000e+00 0.0000000000000000e+00  1.8335807907909033e-05 0.0000000000000000e+00 0.0000000000000000e+00  1.6691714901226423e-05 0.0000000000000000e+00 0.0000000000000000e+00  1.5018877259631538e-05 0.0000000000000000e+00 0.0000000000000000e+00  1.3315464331539766e-05 0.0000000000000000e+00 0.0000000000000000e+00  1.1579178039789406e-05 0.0000000000000000e+00 0.0000000000000000e+00  9.8071641717909226e-06 0.0000000000000000e+00 0.0000000000000000e+00  7.9959148194149407e-06 0.0000000000000000e+00 0.0000000000000000e+00  6.1411511916204324e-06 0.0000000000000000e+00 0.0000000000000000e+00  4.2377035295317830e-06 0.0000000000000000e+00 0.0000000000000000e+00  2.2793632696822891e-06 0.0000000000000000e+00 0.0000000000000000e+00  2.5870937407969270e-07 0.0000000000000000e+00 0.0000000000000000e+00  -1.8331141307696293e-06 0.0000000000000000e+00 0.0000000000000000e+00  -4.0041135894830175e-06 0.0000000000000000e+00 0.0000000000000000e+00  -6.1352119234708439e-06 0.0000000000000000e+00 0.0000000000000000e+00  -8.1607093148398554e-06 0.0000000000000000e+00 0.0000000000000000e+00  -1.0086061691261149e-05 0.0000000000000000e+00 0.0000000000000000e+00  -1.1916136821822627e-05 0.0000000000000000e+00 0.0000000000000000e+00  -1.3655392920807639e-05 0.0000000000000000e+00 0.0000000000000000e+00  -1.5308011750068691e-05 0.0000000000000000e+00 0.0000000000000000e+00  -1.6877980801774261e-05 0.0000000000000000e+00 0.0000000000000000e+00  -1.8369152916075713e-05 0.0000000000000000e+00 0.0000000000000000e+00  -1.9785275310318842e-05 0.0000000000000000e+00 0.0000000000000000e+00  -2.1130001760072220e-05 0.0000000000000000e+00 0.0000000000000000e+00  -2.2406911704259273e-05 0.0000000000000000e+00 0.0000000000000000e+00  -2.3619510868484955e-05 0.0000000000000000e+00 0.0000000000000000e+00  -2.4771237183992018e-05 0.0000000000000000e+00 0.0000000000000000e+00  -2.5865471413105648e-05 0.0000000000000000e+00 0.0000000000000000e+00  -2.6908621095090117e-05 0.0000000000000000e+00 0.0000000000000000e+00  -2.7971104278278961e-05 0.0000000000000000e+00 0.0000000000000000e+00  -2.9087777166048483e-05 0.0000000000000000e+00 0.0000000000000000e+00  -3.0270563103200034e-05 0.0000000000000000e+00 0.0000000000000000e+00  -3.1537581836684315e-05 0.0000000000000000e+00 0.0000000000000000e+00  -3.2919727718921894e-05 0.0000000000000000e+00 0.0000000000000000e+00  -3.4482640088919700e-05 0.0000000000000000e+00 0.0000000000000000e+00  -3.8576226119530995e-05 0.0000000000000000e+00 0.0000000000000000e+00  -4.0124101417971193e-05 0.0000000000000000e+00 0.0000000000000000e+00  -4.1479238307702667e-05 0.0000000000000000e+00 0.0000000000000000e+00  -4.2707092314136041e-05 0.0000000000000000e+00 0.0000000000000000e+00  -4.3838437935254273e-05 0.0000000000000000e+00 0.0000000000000000e+00  -4.4891475127105216e-05 0.0000000000000000e+00 0.0000000000000000e+00  -4.5878158472921855e-05 0.0000000000000000e+00 0.0000000000000000e+00  -4.6806943043438450e-05 0.0000000000000000e+00 0.0000000000000000e+00  -4.7684116639669575e-05 0.0000000000000000e+00 0.0000000000000000e+00  -4.8514534017100447e-05 0.0000000000000000e+00 0.0000000000000000e+00  -4.9302051708656389e-05 0.0000000000000000e+00 0.0000000000000000e+00  -5.0049797245164296e-05 0.0000000000000000e+00 0.0000000000000000e+00  -5.0760356059363310e-05 0.0000000000000000e+00 0.0000000000000000e+00  -5.1435898695831299e-05 0.0000000000000000e+00 0.0000000000000000e+00  -5.2078268383106488e-05 0.0000000000000000e+00 0.0000000000000000e+00  -5.2689047324550945e-05 0.0000000000000000e+00 0.0000000000000000e+00  -5.3269606963444817e-05 0.0000000000000000e+00 0.0000000000000000e+00  -5.3821145264710781e-05 0.0000000000000000e+00 0.0000000000000000e+00  -5.4344715874697378e-05 0.0000000000000000e+00 0.0000000000000000e+00  -5.4841251361340304e-05 0.0000000000000000e+00 0.0000000000000000e+00  -5.5311581314557322e-05 0.0000000000000000e+00 0.0000000000000000e+00  -5.5756447744004707e-05 0.0000000000000000e+00 0.0000000000000000e+00  -5.6176517263994908e-05 0.0000000000000000e+00 0.0000000000000000e+00  -5.6572390561041014e-05 0.0000000000000000e+00 0.0000000000000000e+00  -5.6944611383275592e-05 0.0000000000000000e+00 0.0000000000000000e+00  -5.7293673451887859e-05 0.0000000000000000e+00 0.0000000000000000e+00  -5.7620026246678388e-05 0.0000000000000000e+00 0.0000000000000000e+00  -5.7924080204056629e-05 0.0000000000000000e+00 0.0000000000000000e+00  -5.8206211076372992e-05 0.0000000000000000e+00 0.0000000000000000e+00  -5.8466763659638793e-05 0.0000000000000000e+00 0.0000000000000000e+00  -5.8706055161883541e-05 0.0000000000000000e+00 0.0000000000000000e+00  -5.8924378166534004e-05 0.0000000000000000e+00 0.0000000000000000e+00  -5.9122003257603179e-05 0.0000000000000000e+00 0.0000000000000000e+00  -5.9299181171620291e-05 0.0000000000000000e+00 0.0000000000000000e+00  -5.9456145159836552e-05 0.0000000000000000e+00 0.0000000000000000e+00  -5.9593112932919178e-05 0.0000000000000000e+00 0.0000000000000000e+00  -5.9710288463294419e-05 0.0000000000000000e+00 0.0000000000000000e+00  -5.9807863852568422e-05 0.0000000000000000e+00 0.0000000000000000e+00  -5.9886021041098377e-05 0.0000000000000000e+00 0.0000000000000000e+00  -5.9944933470478399e-05 0.0000000000000000e+00 0.0000000000000000e+00  -5.9984767875961567e-05 0.0000000000000000e+00 0.0000000000000000e+00  -6.0005686006289452e-05 0.0000000000000000e+00 0.0000000000000000e+00  -6.0007846442999462e-05 0.0000000000000000e+00 0.0000000000000000e+00  -5.9991406482550549e-05 0.0000000000000000e+00 0.0000000000000000e+00  -5.9956524193647419e-05 0.0000000000000000e+00 0.0000000000000000e+00  -5.9903360563960117e-05 0.0000000000000000e+00 0.0000000000000000e+00  -5.9832081839510394e-05 0.0000000000000000e+00 0.0000000000000000e+00  -5.9742862118387318e-05 0.0000000000000000e+00 0.0000000000000000e+00  -5.9635886111459003e-05 0.0000000000000000e+00 0.0000000000000000e+00  -5.9511352262476228e-05 0.0000000000000000e+00 0.0000000000000000e+00  -5.9369476097362252e-05 0.0000000000000000e+00 0.0000000000000000e+00  -5.9210494109132127e-05 0.0000000000000000e+00 0.0000000000000000e+00  -5.9034667799629462e-05 0.0000000000000000e+00 0.0000000000000000e+00  -5.8842288219261876e-05 0.0000000000000000e+00 0.0000000000000000e+00  -5.8633681174762523e-05 0.0000000000000000e+00 0.0000000000000000e+00  -5.8409212498727086e-05 0.0000000000000000e+00 0.0000000000000000e+00  -5.8169294044620506e-05 0.0000000000000000e+00 0.0000000000000000e+00  -5.7914389579898033e-05 0.0000000000000000e+00 0.0000000000000000e+00  -5.7645021615642112e-05 0.0000000000000000e+00 0.0000000000000000e+00  -5.7361777211644999e-05 0.0000000000000000e+00 0.0000000000000000e+00  -5.7065313247595136e-05 0.0000000000000000e+00 0.0000000000000000e+00  -5.6756360886785974e-05 0.0000000000000000e+00 0.0000000000000000e+00  -5.6435727320015911e-05 0.0000000000000000e+00 0.0000000000000000e+00  -5.6104292120819948e-05 0.0000000000000000e+00 0.0000000000000000e+00  -5.5762998010167827e-05 0.0000000000000000e+00 0.0000000000000000e+00  -5.5412829867783593e-05 0.0000000000000000e+00 0.0000000000000000e+00  -5.5054778790832921e-05 0.0000000000000000e+00 0.0000000000000000e+00  -5.4689781122985180e-05 0.0000000000000000e+00 0.0000000000000000e+00  -5.4318623164254849e-05 0.0000000000000000e+00 0.0000000000000000e+00  -5.3941801452894356e-05 0.0000000000000000e+00 0.0000000000000000e+00  -5.3559312018987789e-05 0.0000000000000000e+00 0.0000000000000000e+00  -5.3170350519900087e-05 0.0000000000000000e+00 0.0000000000000000e+00  -5.2772884892002767e-05 0.0000000000000000e+00 0.0000000000000000e+00  -5.2363041172324766e-05 0.0000000000000000e+00 0.0000000000000000e+00  -5.1934195468726160e-05 0.0000000000000000e+00 0.0000000000000000e+00  -5.1475526134215227e-05 0.0000000000000000e+00 0.0000000000000000e+00  -5.0969269196005222e-05 0.0000000000000000e+00 0.0000000000000000e+00  -5.0384392068231834e-05 0.0000000000000000e+00 0.0000000000000000e+00  -4.9655398383612210e-05 0.0000000000000000e+00 0.0000000000000000e+00  -4.6533187082145473e-05 -2.6238951932980580e-06 0.0000000000000000e+00  -4.4658450790123679e-05 -4.2170932744661271e-06 0.0000000000000000e+00  -4.2820818328542624e-05 -5.4366884663873561e-06 0.0000000000000000e+00  -4.1020904896493169e-05 -6.4126416322009057e-06 0.0000000000000000e+00  -3.9257802877914177e-05 -7.2050691962884710e-06 0.0000000000000000e+00  -3.7529197561682101e-05 -7.8472763459367815e-06 0.0000000000000000e+00  -3.5935064362420959e-05 -8.3310321659909659e-06 0.0000000000000000e+00  -3.4598054351294186e-05 -8.6587038353222785e-06 0.0000000000000000e+00  -3.3471945660480822e-05 -8.8784195874727227e-06 0.0000000000000000e+00  -3.2518377824753583e-05 -9.0221581192994981e-06 0.0000000000000000e+00  -3.1706633086332243e-05 -9.1116402995892282e-06 0.0000000000000000e+00  -3.1011970170416468e-05 -9.1620225174518514e-06 0.0000000000000000e+00  -3.0414400010144068e-05 -9.1840791222037404e-06 0.0000000000000000e+00  -2.9897685096099760e-05 -9.1855826607333272e-06 0.0000000000000000e+00  -2.9448578809710637e-05 -9.1722119103652231e-06 0.0000000000000000e+00  -2.9056223961909356e-05 -9.1481228944007812e-06 0.0000000000000000e+00  -2.8711649574013085e-05 -9.1163997220032561e-06 0.0000000000000000e+00  -2.8407431561113777e-05 -9.0793103432827603e-06 0.0000000000000000e+00  -2.8137357437076870e-05 -9.0385218437983731e-06 0.0000000000000000e+00  -2.7896195055966027e-05 -8.9952396313301185e-06 0.0000000000000000e+00  -2.7679486356961131e-05 -8.9503071403516675e-06 0.0000000000000000e+00  -2.7483379321264700e-05 -8.9042870115580897e-06 0.0000000000000000e+00  -2.7304471543667118e-05 -8.8574695903663565e-06 0.0000000000000000e+00  -2.7139628626145071e-05 -8.8099288121622695e-06 0.0000000000000000e+00  -2.6985844058755872e-05 -8.7614642947304085e-06 0.0000000000000000e+00  -2.6839912242259205e-05 -8.7115207156996562e-06 0.0000000000000000e+00  -2.6697888289902804e-05 -8.6589259539488656e-06 0.0000000000000000e+00  -2.6553729659220314e-05 -8.6010059832187315e-06 0.0000000000000000e+00  -2.6394378758548625e-05 -8.5317515547141890e-06 0.0000000000000000e+00  -2.5802674482870395e-05 -8.2198922939407738e-06 0.0000000000000000e+00  -2.5671507541740717e-05 -8.1314197523741474e-06 0.0000000000000000e+00  -2.5561709282559919e-05 -8.0520493254705626e-06 0.0000000000000000e+00  -2.5460909373981116e-05 -7.9748296415793592e-06 0.0000000000000000e+00  -2.5364017170866057e-05 -7.8964710791520648e-06 0.0000000000000000e+00  -2.5268437735230834e-05 -7.8149946166023866e-06 0.0000000000000000e+00  -2.5172603308807448e-05 -7.7289173699886531e-06 0.0000000000000000e+00  -2.5075446933862396e-05 -7.6369451211517267e-06 0.0000000000000000e+00  -2.4976174270182726e-05 -7.5378447701927792e-06 0.0000000000000000e+00  -2.4874150515933219e-05 -7.4303484837232870e-06 0.0000000000000000e+00  -2.4768819924817458e-05 -7.3131055768632573e-06 0.0000000000000000e+00  -2.4659664772128633e-05 -7.1846388647055422e-06 0.0000000000000000e+00  -2.4546159007237368e-05 -7.0432939651232975e-06 0.0000000000000000e+00  -2.4427727535349543e-05 -6.8871955804820866e-06 0.0000000000000000e+00  -2.4303701339426226e-05 -6.7141887108866139e-06 0.0000000000000000e+00  -2.4173262619086495e-05 -6.5217684922060624e-06 0.0000000000000000e+00  -2.4035374902742761e-05 -6.3069918148422659e-06 0.0000000000000000e+00  -2.3888701571094790e-05 -6.0663625210417841e-06 0.0000000000000000e+00  -2.3731502065295171e-05 -5.7956741272582469e-06 0.0000000000000000e+00  -2.3561502889104383e-05 -5.4897899946832857e-06 0.0000000000000000e+00  -2.3375746027824927e-05 -5.1423414611214207e-06 0.0000000000000000e+00  -2.3170418177342336e-05 -4.7452708890851546e-06 0.0000000000000000e+00  -2.2940668281164416e-05 -4.2881358345999516e-06 0.0000000000000000e+00  -2.2680735467607673e-05 -3.7575549394270430e-06 0.0000000000000000e+00  -2.2411229029670527e-05 -3.1932876700309598e-06 0.0000000000000000e+00  -2.2146457679616609e-05 -2.6227340294322790e-06 0.0000000000000000e+00  -2.1885086192824672e-05 -2.0380863442866093e-06 0.0000000000000000e+00  -2.1627041261687949e-05 -1.4290578956805512e-06 0.0000000000000000e+00  -2.1373540140129269e-05 -7.7726494983288206e-07 0.0000000000000000e+00  -2.0360922018071218e-05 0.0000000000000000e+00 0.0000000000000000e+00  -1.9658868600580944e-05 0.0000000000000000e+00 0.0000000000000000e+00  -1.8981347380685554e-05 0.0000000000000000e+00 0.0000000000000000e+00  -1.8320964245756548e-05 0.0000000000000000e+00 0.0000000000000000e+00  -1.7673937647679686e-05 0.0000000000000000e+00 0.0000000000000000e+00  -1.7037596390943998e-05 0.0000000000000000e+00 0.0000000000000000e+00  -1.6400122722502122e-05 0.0000000000000000e+00 0.0000000000000000e+00  -1.5714044472880913e-05 0.0000000000000000e+00 0.0000000000000000e+00  -1.4968268799335922e-05 0.0000000000000000e+00 0.0000000000000000e+00  -1.4156498690324673e-05 0.0000000000000000e+00 0.0000000000000000e+00  -1.3272077183936376e-05 0.0000000000000000e+00 0.0000000000000000e+00  -1.2308227972739803e-05 0.0000000000000000e+00 0.0000000000000000e+00  -1.1258307608408568e-05 0.0000000000000000e+00 0.0000000000000000e+00  -1.0116022402521415e-05 0.0000000000000000e+00 0.0000000000000000e+00  -8.8755709147968381e-06 0.0000000000000000e+00 0.0000000000000000e+00  -7.5316901089980838e-06 0.0000000000000000e+00 0.0000000000000000e+00  -6.0796038922174583e-06 0.0000000000000000e+00 0.0000000000000000e+00  -4.5148682131327652e-06 0.0000000000000000e+00 0.0000000000000000e+00  -2.8331370466913249e-06 0.0000000000000000e+00 0.0000000000000000e+00  -1.0298584631241554e-06 0.0000000000000000e+00 0.0000000000000000e+00  9.0007935755260455e-07 0.0000000000000000e+00 0.0000000000000000e+00  2.9148491039618232e-06 0.0000000000000000e+00 0.0000000000000000e+00  4.8858719628591682e-06 0.0000000000000000e+00 0.0000000000000000e+00  6.8099082398254731e-06 0.0000000000000000e+00 0.0000000000000000e+00  8.6914385552988507e-06 0.0000000000000000e+00 0.0000000000000000e+00  1.0534459585659688e-05 0.0000000000000000e+00 0.0000000000000000e+00  1.2342405388796025e-05 0.0000000000000000e+00 0.0000000000000000e+00  1.4118138966326300e-05 0.0000000000000000e+00 0.0000000000000000e+00  1.5863987512951234e-05 0.0000000000000000e+00 0.0000000000000000e+00  1.7581797804176241e-05 0.0000000000000000e+00 0.0000000000000000e+00  1.9273005890751740e-05 0.0000000000000000e+00 0.0000000000000000e+00  2.0938701716875885e-05 0.0000000000000000e+00 0.0000000000000000e+00  2.2579693225561686e-05 0.0000000000000000e+00 0.0000000000000000e+00  2.4196562770829653e-05 0.0000000000000000e+00 0.