<?xml version="1.0"?>
<VTKFile type="UnstructuredGrid"  version="0.1"  >
<UnstructuredGrid>
<Piece  NumberOfPoints="5295" NumberOfCells="10023">
<Points>
<DataArray  type="Float64"  NumberOfComponents="3"  format="ascii">-10 0 0  -1 0 0  0.99 0 0  1 0.3 0  1.01 0 0  10 0 0  10 1 0  -10 1 0  -9.900792126385161 0 0  -9.801584252770324 0 0  -9.702376379155485 0 0  -9.603168505540646 0 0  -9.503960631925809 0 0  -9.40475275831097 0 0  -9.305544884696131 0 0  -9.206337011081294 0 0  -9.107129137466455 0 0  -9.007921263851616 0 0  -8.908713390236779 0 0  -8.80950551662194 0 0  -8.710297643007101 0 0  -8.611089769392263 0 0  -8.511881895777424 0 0  -8.412674022162586 0 0  -8.313466148547747 0 0  -8.214258274932909 0 0  -8.11505040131807 0 0  -8.015842527703231 0 0  -7.916634654088394 0 0  -7.817426780473555 0 0  -7.718218906858717 0 0  -7.619011033243879 0 0  -7.51980315962904 0 0  -7.420595286014202 0 0  -7.321387412399364 0 0  -7.222179538784525 0 0  -7.122971665169687 0 0  -7.023763791554849 0 0  -6.92455591794001 0 0  -6.825348044325172 0 0  -6.726140170710334 0 0  -6.626932297095495 0 0  -6.527724423480657 0 0  -6.428516549865818 0 0  -6.32930867625098 0 0  -6.230100802636141 0 0  -6.130892929021304 0 0  -6.031685055406465 0 0  -5.932477181791627 0 0  -5.833269308176789 0 0  -5.73406143456195 0 0  -5.634853560947112 0 0  -5.535645687332187 0 0  -5.436437813716791 0 0  -5.337229940100989 0 0  -5.238022066485172 0 0  -5.138814192869354 0 0  -5.039606319253536 0 0  -4.940398445637718 0 0  -4.8411905720219 0 0  -4.741982698406082 0 0  -4.642774824790265 0 0  -4.543566951174447 0 0  -4.444359077558629 0 0  -4.345151203942811 0 0  -4.245943330326994 0 0  -4.146735456711175 0 0  -4.047527583095357 0 0  -3.94831970947954 0 0  -3.849111835863722 0 0  -3.749903962247903 0 0  -3.650696088632086 0 0  -3.551488215016268 0 0  -3.452280341400452 0 0  -3.353072467784635 0 0  -3.253864594168817 0 0  -3.154656720553001 0 0  -3.055448846937185 0 0  -2.956240973321368 0 0  -2.857033099705551 0 0  -2.757825226089734 0 0  -2.658617352473917 0 0  -2.559409478858099 0 0  -2.460201605242283 0 0  -2.360993731626467 0 0  -2.261785858010649 0 0  -2.162577984394833 0 0  -2.063370110779015 0 0  -1.964277757454315 0 0  -1.870931019980285 0 0  -1.785874718212659 0 0  -1.708372530102515 0 0  -1.637753561384711 0 0  -1.573406506080589 0 0  -1.514774302263078 0 0  -1.461349419905297 0 0  -1.412669369780119 0 0  -1.368312755261428 0 0  -1.327895599360211 0 0  -1.291068018554981 0 0  -1.257511210057762 0 0  -1.226934696957141 0 0  -1.199073772322665 0 0  -1.173613778825967 0 0  -1.148811810422258 0 0  -1.124009842018548 0 0  -1.099207873614839 0 0  -1.07440590521113 0 0  -1.049603936807419 0 0  -1.024801968403709 0 0  -0.9751250000000466 0 0  -0.950250000000089 0 0  -0.9253750000001399 0 0  -0.9005000000002082 0 0  -0.8756250000002549 0 0  -0.8507500000003014 0 0  -0.8258750000003438 0 0  -0.8010000000003947 0 0  -0.7761250000004327 0 0  -0.751250000000488 0 0  -0.7263750000005216 0 0  -0.7015000000006029 0 0  -0.6766250000006538 0 0  -0.6517500000007482 0 0  -0.6268750000008296 0 0  -0.6020000000009326 0 0  -0.5771250000010137 0 0  -0.5522500000011169 0 0  -0.5273750000011679 0 0  -0.5025000000012579 0 0  -0.4776250000013262 0 0  -0.4527500000013946 0 0  -0.4278750000014629 0 0  -0.4030000000015399 0 0  -0.378125000001643 0 0  -0.3532500000017113 0 0  -0.3283750000017797 0 0  -0.303500000001848 0 0  -0.2786250000019163 0 0  -0.2537500000019847 0 0  -0.228875000002053 0 0  -0.2040000000021214 0 0  -0.1791250000021898 0 0  -0.154250000002258 0 0  -0.1293750000023264 0 0  -0.1045000000023947 0 0  -0.07962500000246309 0 0  -0.05475000000253127 0 0  -0.02987500000259968 0 0  -0.005000000002668092 0 0  0.01987499999740683 0 0  0.04474999999749474 0 0  0.06962499999759975 0 0  0.09449999999766123 0 0  0.1193749999977058 0 0  0.1442499999977502 0 0  0.1691249999978031 0 0  0.193999999997839 0 0  0.2188749999979005 0 0  0.2437499999979276 0 0  0.2686249999979977 0 0  0.2934999999980248 0 0  0.3183749999981302 0 0  0.3432499999982093 0 0  0.3681249999983229 0 0  0.3929999999983935 0 0  0.4178749999985072 0 0  0.4427499999985776 0 0  0.4676249999986914 0 0  0.4924999999987185 0 0  0.5173749999987887 0 0  0.5422499999988157 0 0  0.5671249999988863 0 0  0.5919999999989134 0 0  0.616874999998984 0 0  0.6417499999990111 0 0  0.666624999999073 0 0  0.6914999999991092 0 0  0.7163749999992228 0 0  0.7412499999992936 0 0  0.7661249999994075 0 0  0.7909999999994868 0 0  0.8158749999995922 0 0  0.8407499999996801 0 0  0.8656249999997769 0 0  0.8904999999998044 0 0  0.9153749999998662 0 0  0.9402499999999021 0 0  0.9651249999999556 0 0  0.9908266659200442 0.0247999776013272 0  0.9916533318400882 0.04959995520264598 0  0.9924799977601317 0.07439993280395152 0  0.9933066636801752 0.09919991040525436 0  0.9941333296002187 0.1239998880065612 0  0.9949599955202622 0.1487998656078656 0  0.9957358702365583 0.1720761070967483 0  0.9963952746034702 0.1918582381041076 0  0.9969550670345668 0.2086520110370061 0  0.9974302953999558 0.2229088619986725 0  0.9978337340750729 0.235012022252187 0  0.9981762280629766 0.2452868418892962 0  0.9984669836688744 0.2540095100662346 0  0.9987138167585842 0.2614145027575259 0  0.9989233624279383 0.2677008728381498 0  0.9991012534079601 0.2730376022388039 0  0.9992522715641109 0.2775681469233269 0  0.9993804764146753 0.281414292440259 0  0.9994893141868817 0.2846794256064519 0  0.9995817105836454 0.2874513175093613 0  0.9996601492571014 0.2898044777130428 0  0.9997267387193635 0.2918021615809023 0  0.9997832689462828 0.2934980683884821 0  0.9998312595356017 0.2949377860680523 0  0.9998720004991201 0.2961600149736025 0  0.9999065869938424 0.2971976098152709 0  0.9999359487352397 0.2980784620571907 0  0.9999608749943266 0.2988262498297971 0  0.999982035810372 0.2994610743111623 0  1.000017964189628 0.2994610743111629 0  1.000039125005673 0.2988262498297984 0  1.00006405126476 0.2980784620571931 0  1.000093413006158 0.2971976098152747 0  1.00012799950088 0.2961600149736081 0  1.000168740464398 0.2949377860680603 0  1.000216731053717 0.2934980683884931 0  1.000273261280636 0.2918021615809171 0  1.000339850742898 0.2898044777130624 0  1.000418289416354 0.2874513175093871 0  1.000510685813117 0.2846794256064855 0  1.000619523585323 0.2814142924403082 0  1.000747728435887 0.2775681469233894 0  1.000898746592037 0.2730376022388828 0  1.001076637572058 0.2677008728382509 0  1.001286183241411 0.2614145027576674 0  1.001533016331119 0.2540095100664397 0  1.001823771937014 0.2452868418895742 0  1.002166265924915 0.2350120222525473 0  1.002569704600029 0.2229088619991356 0  1.003044932965413 0.2086520110375969 0  1.003604725396505 0.1918582381048565 0  1.00426412976341 0.1720761070976921 0  1.005040004479699 0.1487998656090173 0  1.00586667039975 0.1239998880075143 0  1.0066933363198 0.09919991040600823 0  1.00752000223985 0.07439993280450816 0  1.0083466681599 0.04959995520300525 0  1.00917333407995 0.02479997760150604 0  1.034873556329395 0 0  1.059747112658791 0 0  1.084620668988189 0 0  1.1094942253176 0 0  1.134367781647011 0 0  1.159241337976421 0 0  1.184500641868059 0 0  1.211998703268877 0 0  1.242185090437893 0 0  1.2753226325279 0 0  1.311699854935851 0 0  1.351633476320564 0 0  1.395471183696896 0 0  1.44359466900135 0 0  1.496422919395849 0 0  1.55441591057513 0 0  1.618078542537118 0 0  1.687965113621654 0 0  1.764684119623638 0 0  1.848903518723409 0 0  1.941356584854953 0 0  2.040461974571454 0 0  2.139956199889206 0 0  2.239450425206928 0 0  2.338944650524491 0 0  2.438438875841982 0 0  2.537933101159314 0 0  2.637427326476588 0 0  2.736921551793913 0 0  2.836415777111398 0 0  2.935910002428955 0 0  3.035404227746671 0 0  3.134898453064436 0 0  3.234392678382086 0 0  3.333886903699418 0 0  3.433381129016693 0 0  3.532875354333967 0 0  3.632369579651242 0 0  3.731863804968648 0 0  3.831358030286371 0 0  3.930852255604137 0 0  4.030346480921903 0 0  4.129840706239596 0 0  4.229334931556972 0 0  4.328829156874247 0 0  4.428323382191522 0 0  4.527817607508796 0 0  4.627311832826159 0 0  4.726806058143838 0 0  4.826300283461604 0 0  4.92579450877937 0 0  5.025288734096904 0 0  5.124782959414178 0 0  5.224277184731454 0 0  5.323771410049047 0 0  5.423265635366813 0 0  5.522759860684578 0 0  5.622254086002346 0 0  5.721748311320313 0 0  5.821242536638572 0 0  5.920736761956828 0 0  6.020230987275085 0 0  6.119725212593342 0 0  6.219219437911571 0 0  6.318713663229483 0 0  6.418207888547248 0 0  6.517702113865013 0 0  6.617196339182925 0 0  6.716690564501153 0 0  6.816184789819411 0 0  6.915679015137667 0 0  7.015173240455925 0 0  7.114667465774183 0 0  7.21416169109215 0 0  7.313655916409915 0 0  7.413150141727683 0 0  7.512644367045549 0 0  7.612138592363734 0 0  7.71163281768199 0 0  7.81112704300025 0 0  7.910621268318506 0 0  8.010115493636647 0 0  8.109609718954472 0 0  8.209103944272238 0 0  8.308598169590002 0 0  8.408092394908348 0 0  8.507586620227096 0 0  8.607080845545845 0 0  8.706575070864593 0 0  8.806069296183342 0 0  8.905563521501945 0 0  9.005057746819913 0 0  9.10455197213768 0 0  9.204046197455444 0 0  9.30354042277321 0 0  9.403034648090978 0 0  9.502528873408744 0 0  9.602023098726509 0 0  9.701517324044275 0 0  9.801011549362503 0 0  9.900505774681251 0 0  10 0.09999999999981467 0  10 0.1999999999995579 0  10 0.2999999999992664 0  10 0.3999999999989749 0  10 0.4999999999986943 0  10 0.5999999999989468 0  10 0.69999999999921 0  10 0.7999999999994734 0  10 0.8999999999997368 0  9.899999999999876 1 0  9.799999999999754 1 0  9.69999999999963 1 0  9.599999999999508 1 0  9.499999999999384 1 0  9.39999999999926 1 0  9.299999999999137 1 0  9.199999999999013 1 0  9.099999999998889 1 0  8.999999999998767 1 0  8.899999999998643 1 0  8.799999999998521 1 0  8.699999999998397 1 0  8.599999999998275 1 0  8.499999999998151 1 0  8.399999999998027 1 0  8.299999999997905 1 0  8.199999999997781 1 0  8.099999999997657 1 0  7.999999999997534 1 0 
[...]
<PointData  Tensors="f_65"> 
<DataArray  type="Float64"  Name="f_65"  NumberOfComponents="9" format="ascii">4.6427299413982009e-06 -3.2779994501364982e-06 0.0000000000000000e+00 -3.2779994501364982e-06 -1.0193604434873450e-05 0.0000000000000000e+00 0.0000000000000000e+00 0.0000000000000000e+00 0.0000000000000000e+00  -1.0927118931146060e-04 1.0629637120159518e-05 0.0000000000000000e+00 1.0629637120159518e-05 6.2201072542567462e-05 0.0000000000000000e+00 0.0000000000000000e+00 0.0000000000000000e+00 0.0000000000000000e+00  9.1221347675113850e-05 2.0027012072819977e-05 0.0000000000000000e+00 2.0027012072819977e-05 -1.5927105376127579e-04 0.0000000000000000e+00 0.0000000000000000e+00 0.0000000000000000e+00 0.0000000000000000e+00  4.6458129809506549e-04 2.6281918367548695e-04 0.0000000000000000e+00 2.6281918367548695e-04 3.8660380426402605e-05 0.0000000000000000e+00 0.0000000000000000e+00 0.0000000000000000e+00 0.0000000000000000e+00  3.6203973267472507e-05 -2.0636002829504082e-06 0.0000000000000000e+00 -2.0636002829504082e-06 -3.7908364519933488e-05 0.0000000000000000e+00 0.0000000000000000e+00 0.0000000000000000e+00 0.0000000000000000e+00  -4.4720400524659763e-06 -3.3464410583200987e-06 0.0000000000000000e+00 -3.3464410583200987e-06 9.8900994709800200e-06 0.0000000000000000e+00 0.0000000000000000e+00 0.0000000000000000e+00 0.0000000000000000e+00  4.1361912773022099e-09 -8.0877907043058495e-09 0.0000000000000000e+00 -8.0877907043058495e-09 8.5610710359841698e-10 0.0000000000000000e+00 0.0000000000000000e+00 0.0000000000000000e+00 0.0000000000000000e+00  -4.0985478642209030e-09 -7.9774895191502666e-09 0.0000000000000000e+00 -7.9774895191502666e-09 -8.3377809427224855e-10 0.0000000000000000e+00 0.0000000000000000e+00 0.0000000000000000e+00 0.0000000000000000e+00  1.7654726068743457e-07 -3.5371224036871432e-06 0.0000000000000000e+00 -3.5371224036871432e-06 -2.9196033572402073e-06 0.0000000000000000e+00 0.0000000000000000e+00 0.0000000000000000e+00 0.0000000000000000e+00  -5.7324292511481483e-07 -3.5723099045104492e-06 0.0000000000000000e+00 -3.5723099045104492e-06 -1.2999231706886058e-06 0.0000000000000000e+00 0.0000000000000000e+00 0.0000000000000000e+00 0.0000000000000000e+00  -1.0460995590610342e-06 -3.5701979496069353e-06 0.0000000000000000e+00 -3.5701979496069353e-06 -4.8203195825302133e-07 0.0000000000000000e+00 0.0000000000000000e+00 0.0000000000000000e+00 0.0000000000000000e+00  -1.3897771388002313e-06 -3.5707417469349893e-06 0.0000000000000000e+00 -3.5707417469349893e-06 4.3701999000635155e-08 0.0000000000000000e+00 0.0000000000000000e+00 0.0000000000000000e+00 0.0000000000000000e+00  -1.6744203644205353e-06 -3.5709406213720896e-06 0.0000000000000000e+00 -3.5709406213720896e-06 4.2027353626524027e-07 0.0000000000000000e+00 0.0000000000000000e+00 0.0000000000000000e+00 0.0000000000000000e+00  -1.9260159714366822e-06 -3.5713323548839651e-06 0.0000000000000000e+00 -3.5713323548839651e-06 7.0887377197346473e-07 0.0000000000000000e+00 0.0000000000000000e+00 0.0000000000000000e+00 0.0000000000000000e+00  -2.1569330838175709e-06 -3.5713096192557195e-06 0.0000000000000000e+00 -3.5713096192557195e-06 9.3887724457718695e-07 0.0000000000000000e+00 0.0000000000000000e+00 0.0000000000000000e+00 0.0000000000000000e+00  -2.3737034067266964e-06 -3.5712999427617219e-06 0.0000000000000000e+00 -3.5712999427617219e-06 1.1276410427444403e-06 0.0000000000000000e+00 0.0000000000000000e+00 0.0000000000000000e+00 0.0000000000000000e+00  -2.5812381087354225e-06 -3.5713030978784012e-06 0.0000000000000000e+00 -3.5713030978784012e-06 1.2868552993454794e-06 0.0000000000000000e+00 0.0000000000000000e+00 0.0000000000000000e+00 0.0000000000000000e+00  -2.7823691220916852e-06 -3.5713000250892976e-06 0.0000000000000000e+00 -3.5713000250892976e-06 1.4236359507084065e-06 0.0000000000000000e+00 0.0000000000000000e+00 0.0000000000000000e+00 0.0000000000000000e+00  -2.9799181114799371e-06 -3.5712941059880348e-06 0.0000000000000000e+00 -3.5712941059880348e-06 1.5441767262086132e-06 0.0000000000000000e+00 0.0000000000000000e+00 0.0000000000000000e+00 0.0000000000000000e+00  -3.1761194792289767e-06 -3.5712882189985572e-06 0.0000000000000000e+00 -3.5712882189985572e-06 1.6533759231833591e-06 0.0000000000000000e+00 0.0000000000000000e+00 0.0000000000000000e+00 0.0000000000000000e+00  -3.3727380737123084e-06 -3.5713002087434674e-06 0.0000000000000000e+00 -3.5713002087434674e-06 1.7549854910544635e-06 0.0000000000000000e+00 0.0000000000000000e+00 0.0000000000000000e+00 0.0000000000000000e+00  -3.5709441448804959e-06 -3.5712776162791885e-06 0.0000000000000000e+00 -3.5712776162791885e-06 1.8517408057975767e-06 0.0000000000000000e+00 0.0000000000000000e+00 0.0000000000000000e+00 0.0000000000000000e+00  -3.7717221684864864e-06 -3.5713016935754887e-06 0.0000000000000000e+00 -3.5713016935754887e-06 1.9461048440672490e-06 0.0000000000000000e+00 0.0000000000000000e+00 0.0000000000000000e+00 0.0000000000000000e+00  -3.9756862276444024e-06 -3.5713021406618980e-06 0.0000000000000000e+00 -3.5713021406618980e-06 2.0396794022027930e-06 0.0000000000000000e+00 0.0000000000000000e+00 0.0000000000000000e+00 0.0000000000000000e+00  -4.1831363226872352e-06 -3.5712997343714308e-06 0.0000000000000000e+00 -3.5712997343714308e-06 2.1336783471881090e-06 0.0000000000000000e+00 0.0000000000000000e+00 0.0000000000000000e+00 0.0000000000000000e+00  -4.3941956837398298e-06 -3.5713011982123659e-06 0.0000000000000000e+00 -3.5713011982123659e-06 2.2289887251407479e-06 0.0000000000000000e+00 0.0000000000000000e+00 0.0000000000000000e+00 0.0000000000000000e+00  -4.6087721307818302e-06 -3.5712943381306684e-06 0.0000000000000000e+00 -3.5712943381306684e-06 2.3260427340987832e-06 0.0000000000000000e+00 0.0000000000000000e+00 0.0000000000000000e+00 0.0000000000000000e+00  -4.8266794645551834e-06 -3.5712929602277111e-06 0.0000000000000000e+00 -3.5712929602277111e-06 2.4251616524835748e-06 0.0000000000000000e+00 0.0000000000000000e+00 0.0000000000000000e+00 0.0000000000000000e+00  -5.0476425850992591e-06 -3.5713003208089308e-06 0.0000000000000000e+00 -3.5713003208089308e-06 2.5264248268883907e-06 0.0000000000000000e+00 0.0000000000000000e+00 0.0000000000000000e+00 0.0000000000000000e+00  -5.2713618648724522e-06 -3.5712994010778701e-06 0.0000000000000000e+00 -3.5712994010778701e-06 2.6297794908309877e-06 0.0000000000000000e+00 0.0000000000000000e+00 0.0000000000000000e+00 0.0000000000000000e+00  -5.4975290865552599e-06 -3.5712948250100562e-06 0.0000000000000000e+00 -3.5712948250100562e-06 2.7351675708695462e-06 0.0000000000000000e+00 0.0000000000000000e+00 0.0000000000000000e+00 0.0000000000000000e+00  -5.7258040136685558e-06 -3.5712953925947245e-06 0.0000000000000000e+00 -3.5712953925947245e-06 2.8423932003705481e-06 0.0000000000000000e+00 0.0000000000000000e+00 0.0000000000000000e+00 0.0000000000000000e+00  -5.9558858922390794e-06 -3.5712989949011016e-06 0.0000000000000000e+00 -3.5712989949011016e-06 2.9512695838656989e-06 0.0000000000000000e+00 0.0000000000000000e+00 0.0000000000000000e+00 0.0000000000000000e+00  -6.1874947708182261e-06 -3.5712986278312974e-06 0.0000000000000000e+00 -3.5712986278312974e-06 3.0616188953196559e-06 0.0000000000000000e+00 0.0000000000000000e+00 0.0000000000000000e+00 0.0000000000000000e+00  -6.4203637914774674e-06 -3.5712963986700296e-06 0.0000000000000000e+00 -3.5712963986700296e-06 3.1732131114490585e-06 0.0000000000000000e+00 0.0000000000000000e+00 0.0000000000000000e+00 0.0000000000000000e+00  -6.6542733681389684e-06 -3.5712985034522315e-06 0.0000000000000000e+00 -3.5712985034522315e-06 3.2858838166230985e-06 0.0000000000000000e+00 0.0000000000000000e+00 0.0000000000000000e+00 0.0000000000000000e+00  -6.8890312005798026e-06 -3.5712965731283083e-06 0.0000000000000000e+00 -3.5712965731283083e-06 3.3994556098234507e-06 0.0000000000000000e+00 0.0000000000000000e+00 0.0000000000000000e+00 0.0000000000000000e+00  -7.1244593486615307e-06 -3.5712964408553824e-06 0.0000000000000000e+00 -3.5712964408553824e-06 3.5137712016415577e-06 0.0000000000000000e+00 0.0000000000000000e+00 0.0000000000000000e+00 0.0000000000000000e+00  -7.3604235590063107e-06 -3.5712969629669002e-06 0.0000000000000000e+00 -3.5712969629669002e-06 3.6286957784989234e-06 0.0000000000000000e+00 0.0000000000000000e+00 0.0000000000000000e+00 0.0000000000000000e+00  -7.5968054539979632e-06 -3.5712969667396688e-06 0.0000000000000000e+00 -3.5712969667396688e-06 3.7441113444942589e-06 0.0000000000000000e+00 0.0000000000000000e+00 0.0000000000000000e+00 0.0000000000000000e+00  -7.8335049376603986e-06 -3.5712968722201736e-06 0.0000000000000000e+00 -3.5712968722201736e-06 3.8599170742925897e-06 0.0000000000000000e+00 0.0000000000000000e+00 0.0000000000000000e+00 0.0000000000000000e+00  -8.0704452434648362e-06 -3.5712968162220623e-06 0.0000000000000000e+00 -3.5712968162220623e-06 3.9760273518286086e-06 0.0000000000000000e+00 0.0000000000000000e+00 0.0000000000000000e+00 0.0000000000000000e+00  -8.3075609578400835e-06 -3.5712967881594385e-06 0.0000000000000000e+00 -3.5712967881594385e-06 4.0923717556459788e-06 0.0000000000000000e+00 0.0000000000000000e+00 0.0000000000000000e+00 0.0000000000000000e+00  -8.5448015496888423e-06 -3.5712965531987826e-06 0.0000000000000000e+00 -3.5712965531987826e-06 4.2088902925480612e-06 0.0000000000000000e+00 0.0000000000000000e+00 0.0000000000000000e+00 0.0000000000000000e+00  -8.7821257912236220e-06 -3.5712965621407261e-06 0.0000000000000000e+00 -3.5712965621407261e-06 4.3255350555632466e-06 0.0000000000000000e+00 0.0000000000000000e+00 0.0000000000000000e+00 0.0000000000000000e+00  -9.0195007284460754e-06 -3.5712965483798699e-06 0.0000000000000000e+00 -3.5712965483798699e-06 4.4422653644814374e-06 0.0000000000000000e+00 0.0000000000000000e+00 0.0000000000000000e+00 0.0000000000000000e+00  -9.2568996432135234e-06 -3.5712965462839614e-06 0.0000000000000000e+00 -3.5712965462839614e-06 4.5590476828529578e-06 0.0000000000000000e+00 0.0000000000000000e+00 0.0000000000000000e+00 0.0000000000000000e+00  -9.4943007762639576e-06 -3.5712965329213357e-06 0.0000000000000000e+00 -3.5712965329213357e-06 4.6758539155996030e-06 0.0000000000000000e+00 0.0000000000000000e+00 0.0000000000000000e+00 0.0000000000000000e+00  -9.7316849292076910e-06 -3.5712965034529790e-06 0.0000000000000000e+00 -3.5712965034529790e-06 4.7926598304480144e-06 0.0000000000000000e+00 0.0000000000000000e+00 0.0000000000000000e+00 0.0000000000000000e+00  -9.9690355205705926e-06 -3.5712965173893662e-06 0.0000000000000000e+00 -3.5712965173893662e-06 4.9094441760945197e-06 0.0000000000000000e+00 0.0000000000000000e+00 0.0000000000000000e+00 0.0000000000000000e+00  -1.0206336927214417e-05 -3.5712965259612714e-06 0.0000000000000000e+00 -3.5712965259612714e-06 5.0261877136858460e-06 0.0000000000000000e+00 0.0000000000000000e+00 0.0000000000000000e+00 0.0000000000000000e+00  -1.0443572791657927e-05 -3.5712964415696175e-06 0.0000000000000000e+00 -3.5712964415696175e-06 5.1428719389398542e-06 0.0000000000000000e+00 0.0000000000000000e+00 0.0000000000000000e+00 0.0000000000000000e+00  -1.0680726990436029e-05 -3.5712965644214944e-06 0.0000000000000000e+00 -3.5712965644214944e-06 5.2594796107722227e-06 0.0000000000000000e+00 0.0000000000000000e+00 0.0000000000000000e+00 0.0000000000000000e+00  -1.0917781765830379e-05 -3.5712965903005033e-06 0.0000000000000000e+00 -3.5712965903005033e-06 5.3759929805638946e-06 0.0000000000000000e+00 0.0000000000000000e+00 0.0000000000000000e+00 0.0000000000000000e+00  -1.1154717640908291e-05 -3.5712966463792674e-06 0.0000000000000000e+00 -3.5712966463792674e-06 5.4923943337526792e-06 0.0000000000000000e+00 0.0000000000000000e+00 0.0000000000000000e+00 0.0000000000000000e+00  -1.1391513704655587e-05 -3.5712966599564042e-06 0.0000000000000000e+00 -3.5712966599564042e-06 5.6086681471056199e-06 0.0000000000000000e+00 0.0000000000000000e+00 0.0000000000000000e+00 0.0000000000000000e+00  -1.1628146872936870e-05 -3.5712966674188124e-06 0.0000000000000000e+00 -3.5712966674188124e-06 5.7247962509502951e-06 0.0000000000000000e+00 0.0000000000000000e+00 0.0000000000000000e+00 0.0000000000000000e+00  -1.1864593245933281e-05 -3.5712961602738852e-06 0.0000000000000000e+00 -3.5712961602738852e-06 5.8407665377603926e-06 0.0000000000000000e+00 0.0000000000000000e+00 0.0000000000000000e+00 0.0000000000000000e+00  -1.2100827582803418e-05 -3.5712966132348999e-06 0.0000000000000000e+00 -3.5712966132348999e-06 5.9565664298908347e-06 0.0000000000000000e+00 0.0000000000000000e+00 0.0000000000000000e+00 0.0000000000000000e+00  -1.2336828609211566e-05 -3.5712968214320459e-06 0.0000000000000000e+00 -3.5712968214320459e-06 6.0721950875663048e-06 0.0000000000000000e+00 0.0000000000000000e+00 0.0000000000000000e+00 0.0000000000000000e+00  -1.2572573367239672e-05 -3.5712958881624320e-06 0.0000000000000000e+00 -3.5712958881624320e-06 6.1876508316846975e-06 0.0000000000000000e+00 0.0000000000000000e+00 0.0000000000000000e+00 0.0000000000000000e+00  -1.2808048714696641e-05 -3.5712967101033564e-06 0.0000000000000000e+00 -3.5712967101033564e-06 6.3029576444324702e-06 0.0000000000000000e+00 0.0000000000000000e+00 0.0000000000000000e+00 0.0000000000000000e+00  -1.3043252124043741e-05 -3.5712967490898892e-06 0.0000000000000000e+00 -3.5712967490898892e-06 6.4181497337466090e-06 0.0000000000000000e+00 0.0000000000000000e+00 0.0000000000000000e+00 0.0000000000000000e+00  -1.3278194251294599e-05 -3.5712964131431384e-06 0.0000000000000000e+00 -3.5712964131431384e-06 6.5332886882197604e-06 0.0000000000000000e+00 0.0000000000000000e+00 0.0000000000000000e+00 0.0000000000000000e+00  -1.3512916309944173e-05 -3.5712953108096772e-06 0.0000000000000000e+00 -3.5712953108096772e-06 6.6484813398172887e-06 0.0000000000000000e+00 0.0000000000000000e+00 0.0000000000000000e+00 0.0000000000000000e+00  -1.3747486279160486e-05 -3.5712959312111257e-06 0.0000000000000000e+00 -3.5712959312111257e-06 6.7638694733103294e-06 0.0000000000000000e+00 0.0000000000000000e+00 0.0000000000000000e+00 0.0000000000000000e+00  -1.3982028891274743e-05 -3.5712949332196782e-06 0.0000000000000000e+00 -3.5712949332196782e-06 6.8796727505522850e-06 0.0000000000000000e+00 0.0000000000000000e+00 0.0000000000000000e+00 0.0000000000000000e+00  -1.4216718640336100e-05 -3.5712944925175286e-06 0.0000000000000000e+00 -3.5712944925175286e-06 6.9961739176117392e-06 0.0000000000000000e+00 0.0000000000000000e+00 0.0000000000000000e+00 0.0000000000000000e+00  -1.4451819804271974e-05 -3.5712941297896539e-06 0.0000000000000000e+00 -3.5712941297896539e-06 7.1137677907726345e-06 0.0000000000000000e+00 0.0000000000000000e+00 0.0000000000000000e+00 0.0000000000000000e+00  -1.4687716065314094e-05 -3.5712932462334476e-06 0.0000000000000000e+00 -3.5712932462334476e-06 7.2329823409522462e-06 0.0000000000000000e+00 0.0000000000000000e+00 0.0000000000000000e+00 0.0000000000000000e+00  -1.4924914174812901e-05 -3.5712926333658766e-06 0.0000000000000000e+00 -3.5712926333658766e-06 7.3544940809611056e-06 0.0000000000000000e+00 0.0000000000000000e+00 0.0000000000000000e+00 0.0000000000000000e+00  -1.5164103773419924e-05 -3.5712918737417417e-06 0.0000000000000000e+00 -3.5712918737417417e-06 7.4791775409511788e-06 0.0000000000000000e+00 0.0000000000000000e+00 0.0000000000000000e+00 0.0000000000000000e+00  -1.5406194132086493e-05 -3.5712908001961450e-06 0.0000000000000000e+00 -3.5712908001961450e-06 7.6081414886372201e-06 0.0000000000000000e+00 0.0000000000000000e+00 0.0000000000000000e+00 0.0000000000000000e+00  -1.5652361324410010e-05 -3.5712897684822376e-06 0.0000000000000000e+00 -3.5712897684822376e-06 7.7427690007013551e-06 0.0000000000000000e+00 0.0000000000000000e+00 0.0000000000000000e+00 0.0000000000000000e+00  -1.5904113282084118e-05 -3.5712795640033123e-06 0.0000000000000000e+00 -3.5712795640033123e-06 7.8847592795924136e-06 0.0000000000000000e+00 0.0000000000000000e+00 0.0000000000000000e+00 0.0000000000000000e+00  -1.6163360920126960e-05 -3.5712766940833882e-06 0.0000000000000000e+00 -3.5712766940833882e-06 8.0362393562478692e-06 0.0000000000000000e+00 0.0000000000000000e+00 0.0000000000000000e+00 0.0000000000000000e+00  -1.6432458771048011e-05 -3.5712735101974919e-06 0.0000000000000000e+00 -3.5712735101974919e-06 8.1997297474920152e-06 0.0000000000000000e+00 0.0000000000000000e+00 0.0000000000000000e+00 0.0000000000000000e+00  -1.6714352008247281e-05 -3.5712578377782609e-06 0.0000000000000000e+00 -3.5712578377782609e-06 8.3781366893260500e-06 0.0000000000000000e+00 0.0000000000000000e+00 0.0000000000000000e+00 0.0000000000000000e+00  -1.7012621466855234e-05 -3.5712576535244642e-06 0.0000000000000000e+00 -3.5712576535244642e-06 8.5751494904399837e-06 0.0000000000000000e+00 0.0000000000000000e+00 0.0000000000000000e+00 0.0000000000000000e+00  -1.7331504156910349e-05 -3.5712534767040621e-06 0.0000000000000000e+00 -3.5712534767040621e-06 8.7948024939782795e-06 0.0000000000000000e+00 0.0000000000000000e+00 0.0000000000000000e+00 0.0000000000000000e+00  -1.7676259765438284e-05 -3.5712386000275252e-06 0.0000000000000000e+00 -3.5712386000275252e-06 9.0418505547562130e-06 0.0000000000000000e+00 0.0000000000000000e+00 0.0000000000000000e+00 0.0000000000000000e+00  -1.8052775225184369e-05 -3.5712370728355756e-06 0.0000000000000000e+00 -3.5712370728355756e-06 9.3212116863682341e-06 0.0000000000000000e+00 0.0000000000000000e+00 0.0000000000000000e+00 0.0000000000000000e+00  -1.8468511763042063e-05 -3.5713472334664785e-06 0.0000000000000000e+00 -3.5713472334664785e-06 9.6396042712926837e-06 0.0000000000000000e+00 0.0000000000000000e+00 0.0000000000000000e+00 0.0000000000000000e+00  -1.8931519169970393e-05 -3.5712011412802608e-06 0.0000000000000000e+00 -3.5712011412802608e-06 1.0002728334380396e-05 0.0000000000000000e+00 0.0000000000000000e+00 0.0000000000000000e+00 0.0000000000000000e+00  -1.9451645052636150e-05 -3.5711783111141517e-06 0.0000000000000000e+00 -3.5711783111141517e-06 1.0418186157523433e-05 0.0000000000000000e+00 0.0000000000000000e+00 0.0000000000000000e+00 0.0000000000000000e+00  -2.0040321549572746e-05 -3.5711526620224517e-06 0.0000000000000000e+00 -3.5711526620224517e-06 1.0893947584448010e-05 0.0000000000000000e+00 0.0000000000000000e+00 0.0000000000000000e+00 0.0000000000000000e+00  -2.0710353385954305e-05 -3.5713383666701772e-06 0.0000000000000000e+00 -3.5713383666701772e-06 1.1437033415581143e-05 0.0000000000000000e+00 0.0000000000000000e+00 0.0000000000000000e+00 0.0000000000000000e+00  -2.1477811060591339e-05 -3.5713385268749234e-06 0.0000000000000000e+00 -3.5713385268749234e-06 1.2057324316777884e-05 0.0000000000000000e+00 0.0000000000000000e+00 0.0000000000000000e+00 0.0000000000000000e+00  -2.2361130349970728e-05 -3.5713494304000786e-06 0.0000000000000000e+00 -3.5713494304000786e-06 1.2763980848223861e-05 0.0000000000000000e+00 0.0000000000000000e+00 0.0000000000000000e+00 0.0000000000000000e+00  -2.3321446644336725e-05 -3.5710522655338234e-06 0.0000000000000000e+00 -3.5710522655338234e-06 1.3519642696462507e-05 0.0000000000000000e+00 0.0000000000000000e+00 0.0000000000000000e+00 0.0000000000000000e+00  -2.4328918266497954e-05 -3.5713725036034726e-06 0.0000000000000000e+00 -3.5713725036034726e-06 1.4296883991850882e-05 0.0000000000000000e+00 0.0000000000000000e+00 0.0000000000000000e+00 0.0000000000000000e+00  -2.5380180985374075e-05 -3.5714316908279436e-06 0.0000000000000000e+00 -3.5714316908279436e-06 1.5089303153997020e-05 0.0000000000000000e+00 0.0000000000000000e+00 0.0000000000000000e+00 0.0000000000000000e+00  -2.6473962890626000e-05 -3.5708794453542362e-06 0.0000000000000000e+00 -3.5708794453542362e-06 1.5895045320794297e-05 0.0000000000000000e+00 0.0000000000000000e+00 0.0000000000000000e+00 0.0000000000000000e+00  -2.7609280170635555e-05 -3.5710383044963213e-06 0.0000000000000000e+00 -3.5710383044963213e-06 1.6709789373440510e-05 0.0000000000000000e+00 0.0000000000000000e+00 0.0000000000000000e+00 0.0000000000000000e+00  -2.8788482443864033e-05 -3.5714236163537277e-06 0.0000000000000