<?xml version="1.0"?>
<VTKFile type="UnstructuredGrid"  version="0.1"  >
<UnstructuredGrid>
<Piece  NumberOfPoints="5295" NumberOfCells="10023">
<Points>
<DataArray  type="Float64"  NumberOfComponents="3"  format="ascii">-10 0 0  -1 0 0  0.99 0 0  1 0.3 0  1.01 0 0  10 0 0  10 1 0  -10 1 0  -9.900792126385161 0 0  -9.801584252770324 0 0  -9.702376379155485 0 0  -9.603168505540646 0 0  -9.503960631925809 0 0  -9.40475275831097 0 0  -9.305544884696131 0 0  -9.206337011081294 0 0  -9.107129137466455 0 0  -9.007921263851616 0 0  -8.908713390236779 0 0  -8.80950551662194 0 0  -8.710297643007101 0 0  -8.611089769392263 0 0  -8.511881895777424 0 0  -8.412674022162586 0 0  -8.313466148547747 0 0  -8.214258274932909 0 0  -8.11505040131807 0 0  -8.015842527703231 0 0  -7.916634654088394 0 0  -7.817426780473555 0 0  -7.718218906858717 0 0  -7.619011033243879 0 0  -7.51980315962904 0 0  -7.420595286014202 0 0  -7.321387412399364 0 0  -7.222179538784525 0 0  -7.122971665169687 0 0  -7.023763791554849 0 0  -6.92455591794001 0 0  -6.825348044325172 0 0  -6.726140170710334 0 0  -6.626932297095495 0 0  -6.527724423480657 0 0  -6.428516549865818 0 0  -6.32930867625098 0 0  -6.230100802636141 0 0  -6.130892929021304 0 0  -6.031685055406465 0 0  -5.932477181791627 0 0  -5.833269308176789 0 0  -5.73406143456195 0 0  -5.634853560947112 0 0  -5.535645687332187 0 0  -5.436437813716791 0 0  -5.337229940100989 0 0  -5.238022066485172 0 0  -5.138814192869354 0 0  -5.039606319253536 0 0  -4.940398445637718 0 0  -4.8411905720219 0 0  -4.741982698406082 0 0  -4.642774824790265 0 0  -4.543566951174447 0 0  -4.444359077558629 0 0  -4.345151203942811 0 0  -4.245943330326994 0 0  -4.146735456711175 0 0  -4.047527583095357 0 0  -3.94831970947954 0 0  -3.849111835863722 0 0  -3.749903962247903 0 0  -3.650696088632086 0 0  -3.551488215016268 0 0  -3.452280341400452 0 0  -3.353072467784635 0 0  -3.253864594168817 0 0  -3.154656720553001 0 0  -3.055448846937185 0 0  -2.956240973321368 0 0  -2.857033099705551 0 0  -2.757825226089734 0 0  -2.658617352473917 0 0  -2.559409478858099 0 0  -2.460201605242283 0 0  -2.360993731626467 0 0  -2.261785858010649 0 0  -2.162577984394833 0 0  -2.063370110779015 0 0  -1.964277757454315 0 0  -1.870931019980285 0 0  -1.785874718212659 0 0  -1.708372530102515 0 0  -1.637753561384711 0 0  -1.573406506080589 0 0  -1.514774302263078 0 0  -1.461349419905297 0 0  -1.412669369780119 0 0  -1.368312755261428 0 0  -1.327895599360211 0 0  -1.291068018554981 0 0  -1.257511210057762 0 0  -1.226934696957141 0 0  -1.199073772322665 0 0  -1.173613778825967 0 0  -1.148811810422258 0 0  -1.124009842018548 0 0  -1.099207873614839 0 0  -1.07440590521113 0 0  -1.049603936807419 0 0  -1.024801968403709 0 0  -0.9751250000000466 0 0  -0.950250000000089 0 0  -0.9253750000001399 0 0  -0.9005000000002082 0 0  -0.8756250000002549 0 0  -0.8507500000003014 0 0  -0.8258750000003438 0 0  -0.8010000000003947 0 0  -0.7761250000004327 0 0  -0.751250000000488 0 0  -0.7263750000005216 0 0  -0.7015000000006029 0 0  -0.6766250000006538 0 0  -0.6517500000007482 0 0  -0.6268750000008296 0 0  -0.6020000000009326 0 0  -0.5771250000010137 0 0  -0.5522500000011169 0 0  -0.5273750000011679 0 0  -0.5025000000012579 0 0  -0.4776250000013262 0 0  -0.4527500000013946 0 0  -0.4278750000014629 0 0  -0.4030000000015399 0 0  -0.378125000001643 0 0  -0.3532500000017113 0 0  -0.3283750000017797 0 0  -0.303500000001848 0 0  -0.2786250000019163 0 0  -0.2537500000019847 0 0  -0.228875000002053 0 0  -0.2040000000021214 0 0  -0.1791250000021898 0 0  -0.154250000002258 0 0  -0.1293750000023264 0 0  -0.1045000000023947 0 0  -0.07962500000246309 0 0  -0.05475000000253127 0 0  -0.02987500000259968 0 0  -0.005000000002668092 0 0  0.01987499999740683 0 0  0.04474999999749474 0 0  0.06962499999759975 0 0  0.09449999999766123 0 0  0.1193749999977058 0 0  0.1442499999977502 0 0  0.1691249999978031 0 0  0.193999999997839 0 0  0.2188749999979005 0 0  0.2437499999979276 0 0  0.2686249999979977 0 0  0.2934999999980248 0 0  0.3183749999981302 0 0  0.3432499999982093 0 0  0.3681249999983229 0 0  0.3929999999983935 0 0  0.4178749999985072 0 0  0.4427499999985776 0 0  0.4676249999986914 0 0  0.4924999999987185 0 0  0.5173749999987887 0 0  0.5422499999988157 0 0  0.5671249999988863 0 0  0.5919999999989134 0 0  0.616874999998984 0 0  0.6417499999990111 0 0  0.666624999999073 0 0  0.6914999999991092 0 0  0.7163749999992228 0 0  0.7412499999992936 0 0  0.7661249999994075 0 0  0.7909999999994868 0 0  0.8158749999995922 0 0  0.8407499999996801 0 0  0.8656249999997769 0 0  0.8904999999998044 0 0  0.9153749999998662 0 0  0.9402499999999021 0 0  0.9651249999999556 0 0  0.9908266659200442 0.0247999776013272 0  0.9916533318400882 0.04959995520264598 0  0.9924799977601317 0.07439993280395152 0  0.9933066636801752 0.09919991040525436 0  0.9941333296002187 0.1239998880065612 0  0.9949599955202622 0.1487998656078656 0  0.9957358702365583 0.1720761070967483 0  0.9963952746034702 0.1918582381041076 0  0.9969550670345668 0.2086520110370061 0  0.9974302953999558 0.2229088619986725 0  0.9978337340750729 0.235012022252187 0  0.9981762280629766 0.2452868418892962 0  0.9984669836688744 0.2540095100662346 0  0.9987138167585842 0.2614145027575259 0  0.9989233624279383 0.2677008728381498 0  0.9991012534079601 0.2730376022388039 0  0.9992522715641109 0.2775681469233269 0  0.9993804764146753 0.281414292440259 0  0.9994893141868817 0.2846794256064519 0  0.9995817105836454 0.2874513175093613 0  0.9996601492571014 0.2898044777130428 0  0.9997267387193635 0.2918021615809023 0  0.9997832689462828 0.2934980683884821 0  0.9998312595356017 0.2949377860680523 0  0.9998720004991201 0.2961600149736025 0  0.9999065869938424 0.2971976098152709 0  0.9999359487352397 0.2980784620571907 0  0.9999608749943266 0.2988262498297971 0  0.999982035810372 0.2994610743111623 0  1.000017964189628 0.2994610743111629 0  1.000039125005673 0.2988262498297984 0  1.00006405126476 0.2980784620571931 0  1.000093413006158 0.2971976098152747 0  1.00012799950088 0.2961600149736081 0  1.000168740464398 0.2949377860680603 0  1.000216731053717 0.2934980683884931 0  1.000273261280636 0.2918021615809171 0  1.000339850742898 0.2898044777130624 0  1.000418289416354 0.2874513175093871 0  1.000510685813117 0.2846794256064855 0  1.000619523585323 0.2814142924403082 0  1.000747728435887 0.2775681469233894 0  1.000898746592037 0.2730376022388828 0  1.001076637572058 0.2677008728382509 0  1.001286183241411 0.2614145027576674 0  1.001533016331119 0.2540095100664397 0  1.001823771937014 0.2452868418895742 0  1.002166265924915 0.2350120222525473 0  1.002569704600029 0.2229088619991356 0  1.003044932965413 0.2086520110375969 0  1.003604725396505 0.1918582381048565 0  1.00426412976341 0.1720761070976921 0  1.005040004479699 0.1487998656090173 0  1.00586667039975 0.1239998880075143 0  1.0066933363198 0.09919991040600823 0  1.00752000223985 0.07439993280450816 0  1.0083466681599 0.04959995520300525 0  1.00917333407995 0.02479997760150604 0  1.034873556329395 0 0  1.059747112658791 0 0  1.084620668988189 0 0  1.1094942253176 0 0  1.134367781647011 0 0  1.159241337976421 0 0  1.184500641868059 0 0  1.211998703268877 0 0  1.242185090437893 0 0  1.2753226325279 0 0  1.311699854935851 0 0  1.351633476320564 0 0  1.395471183696896 0 0  1.44359466900135 0 0  1.496422919395849 0 0  1.55441591057513 0 0  1.618078542537118 0 0  1.687965113621654 0 0  1.764684119623638 0 0  1.848903518723409 0 0  1.941356584854953 0 0  2.040461974571454 0 0  2.139956199889206 0 0  2.239450425206928 0 0  2.338944650524491 0 0  2.438438875841982 0 0  2.537933101159314 0 0  2.637427326476588 0 0  2.736921551793913 0 0  2.836415777111398 0 0  2.935910002428955 0 0  3.035404227746671 0 0  3.134898453064436 0 0  3.234392678382086 0 0  3.333886903699418 0 0  3.433381129016693 0 0  3.532875354333967 0 0  3.632369579651242 0 0  3.731863804968648 0 0  3.831358030286371 0 0  3.930852255604137 0 0  4.030346480921903 0 0  4.129840706239596 0 0  4.229334931556972 0 0  4.328829156874247 0 0  4.428323382191522 0 0  4.527817607508796 0 0  4.627311832826159 0 0  4.726806058143838 0 0  4.826300283461604 0 0  4.92579450877937 0 0  5.025288734096904 0 0  5.124782959414178 0 0  5.224277184731454 0 0  5.323771410049047 0 0  5.423265635366813 0 0  5.522759860684578 0 0  5.622254086002346 0 0  5.721748311320313 0 0  5.821242536638572 0 0  5.920736761956828 0 0  6.020230987275085 0 0  6.119725212593342 0 0  6.219219437911571 0 0  6.318713663229483 0 0  6.418207888547248 0 0  6.517702113865013 0 0  6.617196339182925 0 0  6.716690564501153 0 0  6.816184789819411 0 0  6.915679015137667 0 0  7.015173240455925 0 0  7.114667465774183 0 0  7.21416169109215 0 0  7.313655916409915 0 0  7.413150141727683 0 0  7.512644367045549 0 0  7.612138592363734 0 0  7.71163281768199 0 0  7.81112704300025 0 0  7.910621268318506 0 0  8.010115493636647 0 0  8.109609718954472 0 0  8.209103944272238 0 0  8.308598169590002 0 0  8.408092394908348 0 0  8.507586620227096 0 0  8.607080845545845 0 0  8.706575070864593 0 0  8.806069296183342 0 0  8.905563521501945 0 0  9.005057746819913 0 0  9.10455197213768 0 0  9.204046197455444 0 0  9.30354042277321 0 0  9.403034648090978 0 0  9.502528873408744 0 0  9.602023098726509 0 0  9.701517324044275 0 0  9.801011549362503 0 0  9.900505774681251 0 0  10 0.09999999999981467 0  10 0.1999999999995579 0  10 0.2999999999992664 0  10 0.3999999999989749 0  10 0.4999999999986943 0  10 0.5999999999989468 0  10 0.69999999999921 0  10 0.7999999999994734 0  10 0.8999999999997368 0  9.899999999999876 1 0  9.799999999999754 1 0  9.69999999999963 1 0  9.599999999999508 1 0  9.499999999999384 1 0  9.39999999999926 1 0  9.299999999999137 1 0  9.199999999999013 1 0  9.099999999998889 1 0  8.999999999998767 1 0  8.899999999998643 1 0  8.799999999998521 1 0  8.699999999998397 1 0  8.599999999998275 1 0  8.499999999998151 1 0  8.399999999998027 1 0  8.299999999997905 1 0  8.199999999997781 1 0  8.099999999997657 1 0  7.999999999997534 1 0 
[...]
<PointData  Tensors="f_50"> 
<DataArray  type="Float64"  Name="f_50"  NumberOfComponents="9" format="ascii">-6.2321991653996010e-03 -2.7425959102487404e-02 0.0000000000000000e+00 -2.7425959102487404e-02 -1.3036300090104688e-01 0.0000000000000000e+00 0.0000000000000000e+00 0.0000000000000000e+00 0.0000000000000000e+00  -1.2964740893355879e+00 8.8934729052391234e-02 0.0000000000000000e+00 8.8934729052391234e-02 1.3817875681536387e-01 0.0000000000000000e+00 0.0000000000000000e+00 0.0000000000000000e+00 0.0000000000000000e+00  2.1061519944450771e-01 1.6755951988683548e-01 0.0000000000000000e+00 1.6755951988683548e-01 -1.8851735466433581e+00 0.0000000000000000e+00 0.0000000000000000e+00 0.0000000000000000e+00 0.0000000000000000e+00  7.9736241442996167e+00 2.1989229383589075e+00 0.0000000000000000e+00 2.1989229383589075e+00 4.4100818537759707e+00 0.0000000000000000e+00 0.0000000000000000e+00 0.0000000000000000e+00 0.0000000000000000e+00  2.8906623687746025e-01 -1.7265474819320861e-02 0.0000000000000000e+00 -1.7265474819320861e-02 -3.3100767590568247e-01 0.0000000000000000e+00 0.0000000000000000e+00 0.0000000000000000e+00 0.0000000000000000e+00  6.5817684213558469e-03 -2.7998587858381128e-02 0.0000000000000000e+00 -2.7998587858381128e-02 1.2674513549508906e-01 0.0000000000000000e+00 0.0000000000000000e+00 0.0000000000000000e+00 0.0000000000000000e+00  7.5146616398134684e-05 -6.7667923823639916e-05 0.0000000000000000e+00 -6.7667923823639916e-05 4.7703215089153249e-05 0.0000000000000000e+00 0.0000000000000000e+00 0.0000000000000000e+00 0.0000000000000000e+00  -7.4344654272803733e-05 -6.6745069552597594e-05 0.0000000000000000e+00 -6.6745069552597594e-05 -4.7029383617123859e-05 0.0000000000000000e+00 0.0000000000000000e+00 0.0000000000000000e+00 0.0000000000000000e+00  -2.0798140015807078e-02 -2.9593956881224015e-02 0.0000000000000000e+00 -2.9593956881224015e-02 -4.6702628870705663e-02 0.0000000000000000e+00 0.0000000000000000e+00 0.0000000000000000e+00 0.0000000000000000e+00  -2.0007365188616073e-02 -2.9888359297447285e-02 0.0000000000000000e+00 -2.9888359297447285e-02 -2.6087263309057303e-02 0.0000000000000000e+00 0.0000000000000000e+00 0.0000000000000000e+00 0.0000000000000000e+00  -2.1161716565367472e-02 -2.9870689255187967e-02 0.0000000000000000e+00 -2.9870689255187967e-02 -1.6442345746023809e-02 0.0000000000000000e+00 0.0000000000000000e+00 0.0000000000000000e+00 0.0000000000000000e+00  -2.2558748985428492e-02 -2.9875239031204082e-02 0.0000000000000000e+00 -2.9875239031204082e-02 -1.0565293585074940e-02 0.0000000000000000e+00 0.0000000000000000e+00 0.0000000000000000e+00 0.0000000000000000e+00  -2.4193753817584544e-02 -2.9876902949170340e-02 0.0000000000000000e+00 -2.9876902949170340e-02 -6.6681287751380819e-03 0.0000000000000000e+00 0.0000000000000000e+00 0.0000000000000000e+00 0.0000000000000000e+00  -2.5998273042082284e-02 -2.9880180456515665e-02 0.0000000000000000e+00 -2.9880180456515665e-02 -3.9530044440899397e-03 0.0000000000000000e+00 0.0000000000000000e+00 0.0000000000000000e+00 0.0000000000000000e+00  -2.7937700989021291e-02 -2.9879990234882081e-02 0.0000000000000000e+00 -2.9879990234882081e-02 -2.0360592263671839e-03 0.0000000000000000e+00 0.0000000000000000e+00 0.0000000000000000e+00 0.0000000000000000e+00  -2.9978777739510357e-02 -2.9879909274792608e-02 0.0000000000000000e+00 -2.9879909274792608e-02 -6.8416340669888074e-04 0.0000000000000000e+00 0.0000000000000000e+00 0.0000000000000000e+00 0.0000000000000000e+00  -3.2107544210739268e-02 -2.9879935672631388e-02 0.0000000000000000e+00 -2.9879935672631388e-02 2.5553980692599661e-04 0.0000000000000000e+00 0.0000000000000000e+00 0.0000000000000000e+00 0.0000000000000000e+00  -3.4312905590430209e-02 -2.9879909963600775e-02 0.0000000000000000e+00 -2.9879909963600775e-02 8.7737581936887018e-04 0.0000000000000000e+00 0.0000000000000000e+00 0.0000000000000000e+00 0.0000000000000000e+00  -3.6591086653404666e-02 -2.9879860440398708e-02 0.0000000000000000e+00 -2.9879860440398708e-02 1.2605487363004837e-03 0.0000000000000000e+00 0.0000000000000000e+00 0.0000000000000000e+00 0.0000000000000000e+00  -3.8939149501427905e-02 -2.9879811185865513e-02 0.0000000000000000e+00 -2.9879811185865513e-02 1.4676734425772258e-03 0.0000000000000000e+00 0.0000000000000000e+00 0.0000000000000000e+00 0.0000000000000000e+00  -4.1355723601645578e-02 -2.9879911500175688e-02 0.0000000000000000e+00 -2.9879911500175688e-02 1.5462777303859182e-03 0.0000000000000000e+00 0.0000000000000000e+00 0.0000000000000000e+00 0.0000000000000000e+00  -4.3837890298092499e-02 -2.9879722476348541e-02 0.0000000000000000e+00 -2.9879722476348541e-02 1.5319573621253469e-03 0.0000000000000000e+00 0.0000000000000000e+00 0.0000000000000000e+00 0.0000000000000000e+00  -4.6381880070033348e-02 -2.9879923923283983e-02 0.0000000000000000e+00 -2.9879923923283983e-02 1.4573255756132248e-03 0.0000000000000000e+00 0.0000000000000000e+00 0.0000000000000000e+00 0.0000000000000000e+00  -4.8984809930601253e-02 -2.9879927663911121e-02 0.0000000000000000e+00 -2.9879927663911121e-02 1.3438049030064065e-03 0.0000000000000000e+00 0.0000000000000000e+00 0.0000000000000000e+00 0.0000000000000000e+00  -5.1641768742369636e-02 -2.9879907531258618e-02 0.0000000000000000e+00 -2.9879907531258618e-02 1.2089725189748598e-03 0.0000000000000000e+00 0.0000000000000000e+00 0.0000000000000000e+00 0.0000000000000000e+00  -5.4347584889825620e-02 -2.9879919778741292e-02 0.0000000000000000e+00 -2.9879919778741292e-02 1.0664526929528644e-03 0.0000000000000000e+00 0.0000000000000000e+00 0.0000000000000000e+00 0.0000000000000000e+00  -5.7097228869603951e-02 -2.9879862382660900e-02 0.0000000000000000e+00 -2.9879862382660900e-02 9.2411974887066442e-04 0.0000000000000000e+00 0.0000000000000000e+00 0.0000000000000000e+00 0.0000000000000000e+00  -5.9885021791017207e-02 -2.9879850854193334e-02 0.0000000000000000e+00 -2.9879850854193334e-02 7.8878274100001192e-04 0.0000000000000000e+00 0.0000000000000000e+00 0.0000000000000000e+00 0.0000000000000000e+00  -6.2705783664143366e-02 -2.9879912437791090e-02 0.0000000000000000e+00 -2.9879912437791090e-02 6.6398385427585984e-04 0.0000000000000000e+00 0.0000000000000000e+00 0.0000000000000000e+00 0.0000000000000000e+00  -6.5555002943207485e-02 -2.9879904742699394e-02 0.0000000000000000e+00 -2.9879904742699394e-02 5.5128626787555952e-04 0.0000000000000000e+00 0.0000000000000000e+00 0.0000000000000000e+00 0.0000000000000000e+00  -6.8428069556101284e-02 -2.9879866456222925e-02 0.0000000000000000e+00 -2.9879866456222925e-02 4.5223541781057899e-04 0.0000000000000000e+00 0.0000000000000000e+00 0.0000000000000000e+00 0.0000000000000000e+00  -7.1320964485095908e-02 -2.9879871205019878e-02 0.0000000000000000e+00 -2.9879871205019878e-02 3.6636492080072250e-04 0.0000000000000000e+00 0.0000000000000000e+00 0.0000000000000000e+00 0.0000000000000000e+00  -7.4230246008042358e-02 -2.9879901344349962e-02 0.0000000000000000e+00 -2.9879901344349962e-02 2.9303733081666389e-04 0.0000000000000000e+00 0.0000000000000000e+00 0.0000000000000000e+00 0.0000000000000000e+00  -7.7152742542545977e-02 -2.9879898273195895e-02 0.0000000000000000e+00 -2.9879898273195895e-02 2.3159415439635243e-04 0.0000000000000000e+00 0.0000000000000000e+00 0.0000000000000000e+00 0.0000000000000000e+00  -8.0085906014287347e-02 -2.9879879622526005e-02 0.0000000000000000e+00 -2.9879879622526005e-02 1.8044295513498833e-04 0.0000000000000000e+00 0.0000000000000000e+00 0.0000000000000000e+00 0.0000000000000000e+00  -8.3027483683123682e-02 -2.9879897232556480e-02 0.0000000000000000e+00 -2.9879897232556480e-02 1.3859018861808639e-04 0.0000000000000000e+00 0.0000000000000000e+00 0.0000000000000000e+00 0.0000000000000000e+00  -8.5975729403774223e-02 -2.9879881082161816e-02 0.0000000000000000e+00 -2.9879881082161816e-02 1.0470556300130686e-04 0.0000000000000000e+00 0.0000000000000000e+00 0.0000000000000000e+00 0.0000000000000000e+00  -8.8928986712505695e-02 -2.9879879975477142e-02 0.0000000000000000e+00 -2.9879879975477142e-02 7.7640785035673900e-05 0.0000000000000000e+00 0.0000000000000000e+00 0.0000000000000000e+00 0.0000000000000000e+00  -9.1886136903976928e-02 -2.9879884343815024e-02 0.0000000000000000e+00 -2.9879884343815024e-02 5.6263364034712971e-05 0.0000000000000000e+00 0.0000000000000000e+00 0.0000000000000000e+00 0.0000000000000000e+00  -9.4846186451282760e-02 -2.9879884375380510e-02 0.0000000000000000e+00 -2.9879884375380510e-02 3.9589166284381734e-05 0.0000000000000000e+00 0.0000000000000000e+00 0.0000000000000000e+00 0.0000000000000000e+00  -9.7808303806659141e-02 -2.9879883584566534e-02 0.0000000000000000e+00 -2.9879883584566534e-02 2.6768696051074500e-05 0.0000000000000000e+00 0.0000000000000000e+00 0.0000000000000000e+00 0.0000000000000000e+00  -1.0077191855295931e-01 -2.9879883116048507e-02 0.0000000000000000e+00 -2.9879883116048507e-02 1.7013767940354995e-05 0.0000000000000000e+00 0.0000000000000000e+00 0.0000000000000000e+00 0.0000000000000000e+00  -1.0373652406304928e-01 -2.9879882881257619e-02 0.0000000000000000e+00 -2.9879882881257619e-02 9.6945214301646735e-06 0.0000000000000000e+00 0.0000000000000000e+00 0.0000000000000000e+00 0.0000000000000000e+00  -1.0670177439751163e-01 -2.9879880915417947e-02 0.0000000000000000e+00 -2.9879880915417947e-02 4.2321749884779225e-06 0.0000000000000000e+00 0.0000000000000000e+00 0.0000000000000000e+00 0.0000000000000000e+00  -1.0966737885577285e-01 -2.9879880990232303e-02 0.0000000000000000e+00 -2.9879880990232303e-02 1.7166754487118759e-07 0.0000000000000000e+00 0.0000000000000000e+00 0.0000000000000000e+00 0.0000000000000000e+00  -1.1263312446386202e-01 -2.9879880875099636e-02 0.0000000000000000e+00 -2.9879880875099636e-02 -2.8901004890837970e-06 0.0000000000000000e+00 0.0000000000000000e+00 0.0000000000000000e+00 0.0000000000000000e+00  -1.1559884304846275e-01 -2.9879880857563844e-02 0.0000000000000000e+00 -2.9879880857563844e-02 -5.2890864444606320e-06 0.0000000000000000e+00 0.0000000000000000e+00 0.0000000000000000e+00 0.0000000000000000e+00  -1.1856440400749231e-01 -2.9879880745763150e-02 0.0000000000000000e+00 -2.9879880745763150e-02 -7.3118033472874919e-06 0.0000000000000000e+00 0.0000000000000000e+00 0.0000000000000000e+00 0.0000000000000000e+00  -1.2152968759238850e-01 -2.9879880499210941e-02 0.0000000000000000e+00 -2.9879880499210941e-02 -9.2018729179442442e-06 0.0000000000000000e+00 0.0000000000000000e+00 0.0000000000000000e+00 0.0000000000000000e+00  -1.2449459299313488e-01 -2.9879880615812173e-02 0.0000000000000000e+00 -2.9879880615812173e-02 -1.1175019732035259e-05 0.0000000000000000e+00 0.0000000000000000e+00 0.0000000000000000e+00 0.0000000000000000e+00  -1.2745901885776256e-01 -2.9879880687530534e-02 0.0000000000000000e+00 -2.9879880687530534e-02 -1.3421570805405449e-05 0.0000000000000000e+00 0.0000000000000000e+00 0.0000000000000000e+00 0.0000000000000000e+00  -1.3042284576183183e-01 -2.9879879981452910e-02 0.0000000000000000e+00 -2.9879879981452910e-02 -1.6113778775747232e-05 0.0000000000000000e+00 0.0000000000000000e+00 0.0000000000000000e+00 0.0000000000000000e+00  -1.3338594788127128e-01 -2.9879881009314740e-02 0.0000000000000000e+00 -2.9879881009314740e-02 -1.9404969943818415e-05 0.0000000000000000e+00 0.0000000000000000e+00 0.0000000000000000e+00 0.0000000000000000e+00  -1.3634817656911491e-01 -2.9879881225835982e-02 0.0000000000000000e+00 -2.9879881225835982e-02 -2.3443567361834820e-05 0.0000000000000000e+00 0.0000000000000000e+00 0.0000000000000000e+00 0.0000000000000000e+00  -1.3930935455667748e-01 -2.9879881695028854e-02 0.0000000000000000e+00 -2.9879881695028854e-02 -2.8363471530025437e-05 0.0000000000000000e+00 0.0000000000000000e+00 0.0000000000000000e+00 0.0000000000000000e+00  -1.4226926313627891e-01 -2.9879881808624404e-02 0.0000000000000000e+00 -2.9879881808624404e-02 -3.4250808306553180e-05 0.0000000000000000e+00 0.0000000000000000e+00 0.0000000000000000e+00 0.0000000000000000e+00  -1.4522766926206429e-01 -2.9879881871059888e-02 0.0000000000000000e+00 -2.9879881871059888e-02 -4.1217689077692200e-05 0.0000000000000000e+00 0.0000000000000000e+00 0.0000000000000000e+00 0.0000000000000000e+00  -1.4818427721153726e-01 -2.9879877627942680e-02 0.0000000000000000e+00 -2.9879877627942680e-02 -4.9269653135233735e-05 0.0000000000000000e+00 0.0000000000000000e+00 0.0000000000000000e+00 0.0000000000000000e+00  -1.5113877297003969e-01 -2.9879881417720643e-02 0.0000000000000000e+00 -2.9879881417720643e-02 -5.8409100841662097e-05 0.0000000000000000e+00 0.0000000000000000e+00 0.0000000000000000e+00 0.0000000000000000e+00  -1.5409081260126500e-01 -2.9879883159638753e-02 0.0000000000000000e+00 -2.9879883159638753e-02 -6.8477117490683552e-05 0.0000000000000000e+00 0.0000000000000000e+00 0.0000000000000000e+00 0.0000000000000000e+00  -1.5704003122705834e-01 -2.9879875351274336e-02 0.0000000000000000e+00 -2.9879875351274336e-02 -7.9314954891400915e-05 0.0000000000000000e+00 0.0000000000000000e+00 0.0000000000000000e+00 0.0000000000000000e+00  -1.5998601741884932e-01 -2.9879882228187649e-02 0.0000000000000000e+00 -2.9879882228187649e-02 -9.0420489744674385e-05 0.0000000000000000e+00 0.0000000000000000e+00 0.0000000000000000e+00 0.0000000000000000e+00  -1.6292845171553721e-01 -2.9879882554375323e-02 0.0000000000000000e+00 -2.9879882554375323e-02 -1.0120920132475916e-04 0.0000000000000000e+00 0.0000000000000000e+00 0.0000000000000000e+00 0.0000000000000000e+00  -1.6586700966957535e-01 -2.9879879743617752e-02 0.0000000000000000e+00 -2.9879879743617752e-02 -1.1075219487625629e-04 0.0000000000000000e+00 0.0000000000000000e+00 0.0000000000000000e+00 0.0000000000000000e+00  -1.6880150323975140e-01 -2.9879870520750921e-02 0.0000000000000000e+00 -2.9879870520750921e-02 -1.1762278079695319e-04 0.0000000000000000e+00 0.0000000000000000e+00 0.0000000000000000e+00 0.0000000000000000e+00  -1.7173190184015744e-01 -2.9879875711448761e-02 0.0000000000000000e+00 -2.9879875711448761e-02 -1.2003534627830777e-04 0.0000000000000000e+00 0.0000000000000000e+00 0.0000000000000000e+00 0.0000000000000000e+00  -1.7465847818137359e-01 -2.9879867361577783e-02 0.0000000000000000e+00 -2.9879867361577783e-02 -1.1538116736448258e-04 0.0000000000000000e+00 0.0000000000000000e+00 0.0000000000000000e+00 0.0000000000000000e+00  -1.7758181312751053e-01 -2.9879863674365705e-02 0.0000000000000000e+00 -2.9879863674365705e-02 -1.0041552827915709e-04 0.0000000000000000e+00 0.0000000000000000e+00 0.0000000000000000e+00 0.0000000000000000e+00  -1.8050305775692704e-01 -2.9879860639539089e-02 0.0000000000000000e+00 -2.9879860639539089e-02 -7.0775079706209419e-05 0.0000000000000000e+00 0.0000000000000000e+00 0.0000000000000000e+00 0.0000000000000000e+00  -1.8342425050421773e-01 -2.9879853247110684e-02 0.0000000000000000e+00 -2.9879853247110684e-02 -2.0870749780232758e-05 0.0000000000000000e+00 0.0000000000000000e+00 0.0000000000000000e+00 0.0000000000000000e+00  -1.8634825262926677e-01 -2.9879848119446373e-02 0.0000000000000000e+00 -2.9879848119446373e-02 5.6336189390370713e-05 0.0000000000000000e+00 0.0000000000000000e+00 0.0000000000000000e+00 0.0000000000000000e+00  -1.8927933271875019e-01 -2.9879841763917316e-02 0.0000000000000000e+00 -2.9879841763917316e-02 1.6966406134382868e-04 0.0000000000000000e+00 0.0000000000000000e+00 0.0000000000000000e+00 0.0000000000000000e+00  -1.9222347831518727e-01 -2.9879832781909286e-02 0.0000000000000000e+00 -2.9879832781909286e-02 3.3000959909695524e-04 0.0000000000000000e+00 0.0000000000000000e+00 0.0000000000000000e+00 0.0000000000000000e+00  -1.9518884825656277e-01 -2.9879824149893357e-02 0.0000000000000000e+00 -2.9879824149893357e-02 5.5062554571292473e-04 0.0000000000000000e+00 0.0000000000000000e+00 0.0000000000000000e+00 0.0000000000000000e+00  -1.9818650568592058e-01 -2.9879738772325106e-02 0.0000000000000000e+00 -2.9879738772325106e-02 8.4728181018701380e-04 0.0000000000000000e+00 0.0000000000000000e+00 0.0000000000000000e+00 0.0000000000000000e+00  -2.0123068361961427e-01 -2.9879714760635164e-02 0.0000000000000000e+00 -2.9879714760635164e-02 1.2395295614045640e-03 0.0000000000000000e+00 0.0000000000000000e+00 0.0000000000000000e+00 0.0000000000000000e+00  -2.0433973377635353e-01 -2.9879688122093656e-02 0.0000000000000000e+00 -2.9879688122093656e-02 1.7498050385808144e-03 0.0000000000000000e+00 0.0000000000000000e+00 0.0000000000000000e+00 0.0000000000000000e+00  -2.0753861366247067e-01 -2.9879556996040908e-02 0.0000000000000000e+00 -2.9879556996040908e-02 2.4021075815848763e-03 0.0000000000000000e+00 0.0000000000000000e+00 0.0000000000000000e+00 0.0000000000000000e+00  -2.1085640209497997e-01 -2.9879555454449092e-02 0.0000000000000000e+00 -2.9879555454449092e-02 3.2281853107235478e-03 0.0000000000000000e+00 0.0000000000000000e+00 0.0000000000000000e+00 0.0000000000000000e+00  -2.1433019454000743e-01 -2.9879520508346347e-02 0.0000000000000000e+00 -2.9879520508346347e-02 4.2601464914652533e-03 0.0000000000000000e+00 0.0000000000000000e+00 0.0000000000000000e+00 0.0000000000000000e+00  -2.1800809663344589e-01 -2.9879396040014817e-02 0.0000000000000000e+00 -2.9879396040014817e-02 5.5336739141020018e-03 0.0000000000000000e+00 0.0000000000000000e+00 0.0000000000000000e+00 0.0000000000000000e+00  -2.2194723063597591e-01 -2.9879383262494730e-02 0.0000000000000000e+00 -2.9879383262494730e-02 7.0820468024341485e-03 0.0000000000000000e+00 0.0000000000000000e+00 0.0000000000000000e+00 0.0000000000000000e+00  -2.2621605455536342e-01 -2.9880304940793842e-02 0.0000000000000000e+00 -2.9880304940793842e-02 8.9554433451427429e-03 0.0000000000000000e+00 0.0000000000000000e+00 0.0000000000000000e+00 0.0000000000000000e+00  -2.3090099988802021e-01 -2.9879082634815660e-02 0.0000000000000000e+00 -2.9879082634815660e-02 1.1182472298812958e-02 0.0000000000000000e+00 0.0000000000000000e+00 0.0000000000000000e+00 0.0000000000000000e+00  -2.3610269174576923e-01 -2.9878891622214389e-02 0.0000000000000000e+00 -2.9878891622214389e-02 1.3808506114232866e-02 0.0000000000000000e+00 0.0000000000000000e+00 0.0000000000000000e+00 0.0000000000000000e+00  -2.4194489502853134e-01 -2.9878677024576181e-02 0.0000000000000000e+00 -2.9878677024576181e-02 1.6872109989472556e-02 0.0000000000000000e+00 0.0000000000000000e+00 0.0000000000000000e+00 0.0000000000000000e+00  -2.4858171164549647e-01 -2.9880230755182653e-02 0.0000000000000000e+00 -2.9880230755182653e-02 2.0385055763216982e-02 0.0000000000000000e+00 0.0000000000000000e+00 0.0000000000000000e+00 0.0000000000000000e+00  -2.5619786339260398e-01 -2.9880232095563883e-02 0.0000000000000000e+00 -2.9880232095563883e-02 2.4379746624325502e-02 0.0000000000000000e+00 0.0000000000000000e+00 0.0000000000000000e+00 0.0000000000000000e+00  -2.6502291673304212e-01 -2.9880323321825327e-02 0.0000000000000000e+00 -2.9880323321825327e-02 2.8857505715439914e-02 0.0000000000000000e+00 0.0000000000000000e+00 0.0000000000000000e+00 0.0000000000000000e+00  -2.7471948828743126e-01 -2.9877837039691234e-02 0.0000000000000000e+00 -2.9877837039691234e-02 3.3517967185531877e-02 0.0000000000000000e+00 0.0000000000000000e+00 0.0000000000000000e+00 0.0000000000000000e+00  -2.8501828461337947e-01 -2.9880516367840861e-02 0.0000000000000000e+00 -2.9880516367840861e-02 3.8151285471242850e-02 0.0000000000000000e+00 0.0000000000000000e+00 0.0000000000000000e+00 0.0000000000000000e+00  -2.9591582337008171e-01 -2.9881011568167273e-02 0.0000000000000000e+00 -2.9881011568167273e-02 4.2679235533585443e-02 0.0000000000000000e+00 0.0000000000000000e+00 0.0000000000000000e+00 0.0000000000000000e+00  -3.0740619681242098e-01 -2.9876391109254174e-02 0.0000000000000000e+00 -2.9876391109254174e-02 4.7081564425909987e-02 0.0000000000000000e+00 0.0000000000000000e+00 0.0000000000000000e+00 0.0000000000000000e+00  -3.1950827463487874e-01 -2.9877720232214775e-02 0.0000000000000000e+00 -2.9877720232214775e-02 5.1295017820070378e-02 0.0000000000000000e+00 0.0000000000000000e+00 0.0000000000000000e+00 0.0000000000000000e+00  -3.3222583169191666e-01 -2.98809