<?xml version="1.0"?>
<VTKFile type="UnstructuredGrid"  version="0.1"  >
<UnstructuredGrid>
<Piece  NumberOfPoints="4527" NumberOfCells="8794">
<Points>
<DataArray  type="Float64"  NumberOfComponents="3"  format="ascii">-10 0 0  -1 0 0  1 0 0  10 0 0  10 1 0  -10 1 0  -9.800000000000763 0 0  -9.600000000001527 0 0  -9.40000000000229 0 0  -9.200000000003053 0 0  -9.000000000003816 0 0  -8.80000000000458 0 0  -8.600000000005343 0 0  -8.400000000006106 0 0  -8.200000000006868 0 0  -8.000000000007633 0 0  -7.800000000008396 0 0  -7.600000000009159 0 0  -7.400000000009922 0 0  -7.200000000010686 0 0  -7.000000000011449 0 0  -6.800000000012212 0 0  -6.600000000012975 0 0  -6.400000000013739 0 0  -6.200000000014501 0 0  -6.000000000015264 0 0  -5.800000000016028 0 0  -5.600000000016792 0 0  -5.400000000016568 0 0  -5.200000000015357 0 0  -5.000000000014145 0 0  -4.800000000012934 0 0  -4.600000000011723 0 0  -4.400000000010511 0 0  -4.2000000000093 0 0  -4.000000000008089 0 0  -3.800000000006878 0 0  -3.600000000005666 0 0  -3.400000000004457 0 0  -3.200000000003246 0 0  -3.000000000002038 0 0  -2.800000000000828 0 0  -2.59999999999962 0 0  -2.39999999999841 0 0  -2.199999999997201 0 0  -1.999999999996261 0 0  -1.799999999996947 0 0  -1.59999999999771 0 0  -1.399999999998474 0 0  -1.199999999999235 0 0  -0.8016374357161544 0 0  -0.603274871432309 0 0  -0.4049123071484634 0 0  -0.2065497428646179 0 0  -0.0081871785807619 0 0  0.1901753857041282 0 0  0.3885379499890742 0 0  0.5646218600649491 0 0  0.6907055769383663 0 0  0.7805651581494999 0 0  0.8445960938077421 0 0  0.8902241391700567 0 0  0.9227384041807414 0 0  0.9459078689681939 0 0  0.9624182849220737 0 0  0.97418350865662 0 0  0.9825673314454979 0 0  0.9885415938859718 0 0  0.9927988155772318 0 0  0.9958324853193514 0 0  0.9980163743571506 0 0  1.001993944789576 0 0  1.004194076715927 0 0  1.007257145440372 0 0  1.011563207362514 0 0  1.017616668017687 0 0  1.026126621363259 0 0  1.038089913392309 0 0  1.054907908104766 0 0  1.078550638918175 0 0  1.111787586290538 0 0  1.158512093595367 0 0  1.224197379641475 0 0  1.316540892392042 0 0  1.447353036987318 0 0  1.625557255227157 0 0  1.824826362733337 0 0  2.02422084169089 0 0  2.223615320648039 0 0  2.423009799605151 0 0  2.622404278562262 0 0  2.821798757519374 0 0  3.021193236476485 0 0  3.220587715433596 0 0  3.419982194390707 0 0  3.619376673347819 0 0  3.81877115230493 0 0  4.018165631262042 0 0  4.217560110219153 0 0  4.416954589176264 0 0  4.616349068133376 0 0  4.815743547090486 0 0  5.015138026047598 0 0  5.21453250500471 0 0  5.413926983961821 0 0  5.61332146292005 0 0  5.812715941879127 0 0  6.012110420838206 0 0  6.211504899797285 0 0  6.410899378756362 0 0  6.61029385771544 0 0  6.809688336674516 0 0  7.009082815633596 0 0  7.208477294592674 0 0  7.407871773551752 0 0  7.607266252510829 0 0  7.806660731469907 0 0  8.006055210428762 0 0  8.205449689385997 0 0  8.404844168343109 0 0  8.604238647300221 0 0  8.803633126257331 0 0  9.003027605214443 0 0  9.202422084171554 0 0  9.401816563128666 0 0  9.601211042085778 0 0  9.800605521042888 0 0  10 0.1999999999995579 0  10 0.3999999999989749 0  10 0.5999999999989468 0  10 0.7999999999994734 0  9.800481300619087 1 0  9.600962601238173 1 0  9.401443901857261 1 0  9.201925202476348 1 0  9.002406503095434 1 0  8.802887803714521 1 0  8.603369104333607 1 0  8.403850404952696 1 0  8.204331705571782 1 0  8.004813006190869 1 0  7.805294306809956 1 0  7.605775607429099 1 0  7.406256908048615 1 0  7.206738208668519 1 0  7.007219509288491 1 0  6.807700809908464 1 0  6.608182110528437 1 0  6.40866341114841 1 0  6.209144711768383 1 0  6.009626012388356 1 0  5.810107313008329 1 0  5.610588613628302 1 0  5.411069914248275 1 0  5.211551214868247 1 0  5.01203251548822 1 0  4.812513816108193 1 0  4.612995116728166 1 0  4.413476417348139 1 0  4.21395771796811 1 0  4.014439018588084 1 0  3.814920319208057 1 0  3.61540161982803 1 0  3.415882920448004 1 0  3.216364221067975 1 0  3.016845521687949 1 0  2.817326822307922 1 0  2.617808122927895 1 0  2.418289423547868 1 0  2.21877072416784 1 0  2.019252024787787 1 0  1.819733325407194 1 0  1.621888404810083 1 0  1.444971327520228 1 0  1.314582473328786 1 0  1.222733835358929 1 0  1.157436884849531 1 0  1.110998486360161 1 0  1.07797206118723 1 0  1.054484067069733 1 0  1.037779687924344 1 0  1.025899736802284 1 0  1.017450858410317 1 0  1.011442119041432 1 0  1.007168775654813 1 0  1.004129625733448 1 0  1.001942500985756 1 0  0.9999473139919477 1 0  0.997952126998138 1 0  0.9957344283294098 1 0  0.9926400433022327 1 0  0.9882890338921495 1 0  0.9821710888008504 1 0  0.9735686567885118 1 0  0.9614727925552309 1 0  0.9444648183814941 1 0  0.9205499412755067 1 0  0.8869232761431647 1 0  0.8396408807257743 1 0  0.7731571987398915 1 0  0.6796402578843477 1 0  0.5431676560342584 1 0  0.3721385030115911 1 0  0.1754536684265453 1 0  -0.02406503095436463 1 0  -0.2235837303352799 1 0  -0.4231024297161916 1 0  -0.6226211290971033 1 0  -0.8221398284780168 1 0  -1.021658527858929 1 0  -1.221177227239842 1 0  -1.420695926620754 1 0  -1.620214626001665 1 0  -1.819733325382579 1 0  -2.019252024763492 1 0  -2.218770724144406 1 0  -2.418289423525318 1 0  -2.617808122906231 1 0  -2.817326822287143 1 0  -3.016845521668055 1 0  -3.216364221048968 1 0  -3.41588292042988 1 0  -3.615401619810793 1 0  -3.814920319191707 1 0  -4.014439018572617 1 0  -4.213957717953532 1 0  -4.413476417334447 1 0  -4.612995116715359 1 0  -4.812513816096271 1 0  -5.012032515477184 1 0  -5.211551214858098 1 0  -5.411069914239011 1 0  -5.610588613619923 1 0  -5.810107313000834 1 0  -6.009626012381748 1 0  -6.209144711762661 1 0  -6.408663411143575 1 0  -6.608182110524485 1 0  -6.807700809905398 1 0  -7.007219509286312 1 0  -7.206738208667222 1 0  -7.406256908048135 1 0  -7.605775607429049 1 0  -7.805294306809959 1 0  -8.004813006190872 1 0  -8.204331705571786 1 0  -8.403850404952699 1 0  -8.603369104333613 1 0  -8.802887803714526 1 0  -9.002406503095436 1 0  -9.20192520247635 1 0  -9.401443901857263 1 0  -9.600962601238173 1 0  -9.80048130061909 1 0  -10 0.7999999999999998 0  -10 0.6000000000013869 0  -10 0.4000000000016644 0  -10 0.2000000000008322 0  0.9133836821952257 0.02434441494663643 0  1.098555576901312 0.9601663770543256 0  0.9094088635981978 0.9674431558876251 0  1.088528247793151 0.03371460656204428 0  0.9989917151641592 0.001602818167175451 0  1.013896969494939 0.005240692788648887 0  0.9857782217747304 0.004848383997867619 0  0.998853404610808 0.9982035071153033 0  1.013143220843546 0.9937812162524646 0  0.9853635599833104 0.9958855257685639 0  0.7402332092670584 0.08988485690792226 0  1.247754800300646 0.9229205241493388 0  0.7348397402239413 0.9022277258878831 0  1.253876046904646 0.09215631093387915 0  1.031267411960121 0.9887294227510799 0  1.019916477002632 0.9789566363335769 0  1.031624400550768 0.01096368035898473 0  1.020933426489232 0.02126804061095226 0  0.9676823948866133 0.9905725619179506 0  0.9690087374657101 0.01125478969212642 0  0.4909197859951867 0.8353853212549748 0  1.533429866165156 0.8669326283017784 0  0.9777864891345911 0.9813609324229114 0  0.97820068964452 0.01927059026948361 0  0.9941872358158175 0.9976998002861585 0  0.9943156504482888 0.002259269224574114 0  1.002994684098055 0.002038607724316814 0  1.002993061744177 0.9978982973627537 0  0.4765799050270116 0.1308424205696732 0  1.521134174142395 0.1501946060398224 0  0.09003027254578624 0.1625600284744811 0  1.918461057854756 0.8332501105698671 0  -0.3109060564889265 0.1674876297500414 0  9.302780182844312 0.1750237598831363 0  -0.7087250005775128 0.1674387891251732 0  8.92396618812599 0.1853479912734875 0  8.504602640055891 0.1587899434788372 0  8.105672348438038 0.1710756745806549 0  7.706888670631024 0.1710777027852234 0  7.308072881210555 0.1710756868094612 0  6.909289202745669 0.1710777046239838 0  6.510596618235902 0.1726806841529221 0  6.111807660317747 0.1726806841529233 0  5.713018702399589 0.1726806841525549 0  5.31387454292198 0.171202393233529 0  4.915346181105313 0.1728226710116572 0  4.516651828654819 0.1726806841512195 0  4.117862870740598 0.1726806841512199 0  3.718632291732633 0.1712291158605383 0  3.320379560375879 0.1728226710116588 0  2.923212199490094 0.1684581689645827 0  2.52015902530377 0.1711235817196708 0  -9.306721315296459 0.8072472278362141 0  -8.907456061637179 0.8080960466615467 0  -8.508190807977902 0.8089456601396764 0  -8.108925554318626 0.8097960917672007 0  -7.709660300659344 0.8106473659762959 0  -7.310395047000064 0.8114995081817321 0  -6.911129793340787 0.8123525448308132 0  -6.511864539681508 0.8132065034563511 0  -6.112599286022228 0.8140614127328966 0  -1.099999999999618 0.1724960502929298 0  -5.713334032362946 0.8149173025366028 0  -5.314068778703666 0.815774204008803 0  -4.914803525044385 0.8166321496236856 0  -4.515538271385106 0.8174911732604075 0  -4.116273017725823 0.8183513102798836 0  -3.717007764066542 0.8192125976067042 0  -3.317742510407262 0.820075073816538 0  -2.918477256747981 0.8221788923402839 0  -2.519677295037874 0.8228600452131328 0  -2.120320899419612 0.8235662481751922 0  -1.72096450380135 0.8242724511372496 0  -1.32160810818317 0.8249786540990465 0  2.123996975386627 0.1728136471259561 0  9.518200388618855 0.8209250207317376 0  9.09577279450993 0.8308243358880303 0  8.703128454024062 0.8340258036217687 0  8.304015856583989 0.8270988729595665 0  7.9051062797985 0.8271809903189038 0  7.505941059060565 0.8270988729599247 0  7.107031482276735 0.8271809903195346 0  6.70786626154007 0.8270988729601242 0  6.308847619621169 0.8273003321325789 0  5.910062229780448 0.8271337021455001 0  5.510754065259906 0.8270988729601207 0  5.111791865178233 0.827211737806866 0  4.712822125310879 0.8272853620702432 0  4.313912634740229 0.8271337021455009 0  3.91460447021969 0.8270988729601227 0  3.515642270138018 0.8272117378068669 0  -9.49774789593992 0.1640769978724947 0  3.116693604597933 0.8271884166645003 0  2.71764267129629 0.8270988729601
[...]
<PointData  Vectors="f_232"> 
<DataArray  type="Float64"  Name="f_232"  NumberOfComponents="3" format="ascii">9.2353513115198973e-05 0.0000000000000000e+00 0.0000000000000000e+00  -1.9260103848864145e-05 0.0000000000000000e+00 0.0000000000000000e+00  -1.9268176273518987e-05 0.0000000000000000e+00 0.0000000000000000e+00  9.2353499775064054e-05 0.0000000000000000e+00 0.0000000000000000e+00  8.6819986897313596e-05 1.4472890293028259e-06 0.0000000000000000e+00  8.6819977733189872e-05 -1.4472847942693165e-06 0.0000000000000000e+00  9.2511137657423216e-05 0.0000000000000000e+00 0.0000000000000000e+00  9.2304012497915737e-05 0.0000000000000000e+00 0.0000000000000000e+00  9.1966954668542929e-05 0.0000000000000000e+00 0.0000000000000000e+00  9.1531803038678497e-05 0.0000000000000000e+00 0.0000000000000000e+00  9.1010750938612546e-05 0.0000000000000000e+00 0.0000000000000000e+00  9.0408939807659042e-05 0.0000000000000000e+00 0.0000000000000000e+00  8.9727513418974100e-05 0.0000000000000000e+00 0.0000000000000000e+00  8.8965158791426473e-05 0.0000000000000000e+00 0.0000000000000000e+00  8.8119334423227989e-05 0.0000000000000000e+00 0.0000000000000000e+00  8.7187166927040838e-05 0.0000000000000000e+00 0.0000000000000000e+00  8.6165992510704996e-05 0.0000000000000000e+00 0.0000000000000000e+00  8.5053608172725424e-05 0.0000000000000000e+00 0.0000000000000000e+00  8.3848330872252327e-05 0.0000000000000000e+00 0.0000000000000000e+00  8.2548952183284934e-05 0.0000000000000000e+00 0.0000000000000000e+00  8.1154649752901130e-05 0.0000000000000000e+00 0.0000000000000000e+00  7.9664891834653438e-05 0.0000000000000000e+00 0.0000000000000000e+00  7.8079352898866714e-05 0.0000000000000000e+00 0.0000000000000000e+00  7.6397846947732291e-05 0.0000000000000000e+00 0.0000000000000000e+00  7.4620279036838869e-05 0.0000000000000000e+00 0.0000000000000000e+00  7.2746612739424450e-05 0.0000000000000000e+00 0.0000000000000000e+00  7.0776850460949861e-05 0.0000000000000000e+00 0.0000000000000000e+00  6.8711023618314335e-05 0.0000000000000000e+00 0.0000000000000000e+00  6.6549190100958673e-05 0.0000000000000000e+00 0.0000000000000000e+00  6.4291436710122219e-05 0.0000000000000000e+00 0.0000000000000000e+00  6.1937884110518587e-05 0.0000000000000000e+00 0.0000000000000000e+00  5.9488690920765618e-05 0.0000000000000000e+00 0.0000000000000000e+00  5.6944051555338241e-05 0.0000000000000000e+00 0.0000000000000000e+00  5.4304178851373829e-05 0.0000000000000000e+00 0.0000000000000000e+00  5.1569256811455314e-05 0.0000000000000000e+00 0.0000000000000000e+00  4.8739340349294336e-05 0.0000000000000000e+00 0.0000000000000000e+00  4.5814167218838947e-05 0.0000000000000000e+00 0.0000000000000000e+00  4.2792832206005957e-05 0.0000000000000000e+00 0.0000000000000000e+00  3.9673255935842240e-05 0.0000000000000000e+00 0.0000000000000000e+00  3.6451362679742460e-05 0.0000000000000000e+00 0.0000000000000000e+00  3.3119867980956416e-05 0.0000000000000000e+00 0.0000000000000000e+00  2.9666574209840829e-05 0.0000000000000000e+00 0.0000000000000000e+00  2.6072084105311197e-05 0.0000000000000000e+00 0.0000000000000000e+00  2.2306854512604901e-05 0.0000000000000000e+00 0.0000000000000000e+00  1.8327450332687938e-05 0.0000000000000000e+00 0.0000000000000000e+00  1.4071484943254254e-05 0.0000000000000000e+00 0.0000000000000000e+00  9.4493860599906186e-06 0.0000000000000000e+00 0.0000000000000000e+00  4.3268406456731106e-06 0.0000000000000000e+00 0.0000000000000000e+00  -1.5232617678459102e-06 0.0000000000000000e+00 0.0000000000000000e+00  -8.5763704065163726e-06 0.0000000000000000e+00 0.0000000000000000e+00  -2.9488838556389487e-05 0.0000000000000000e+00 0.0000000000000000e+00  -3.5290980496155495e-05 0.0000000000000000e+00 0.0000000000000000e+00  -3.9061208507975145e-05 0.0000000000000000e+00 0.0000000000000000e+00  -4.1236459883699145e-05 0.0000000000000000e+00 0.0000000000000000e+00  -4.1983843886329056e-05 0.0000000000000000e+00 0.0000000000000000e+00  -4.1351021141513336e-05 0.0000000000000000e+00 0.0000000000000000e+00  -3.9298134499453237e-05 0.0000000000000000e+00 0.0000000000000000e+00  -3.6166801883553108e-05 0.0000000000000000e+00 0.0000000000000000e+00  -3.3032087313603259e-05 0.0000000000000000e+00 0.0000000000000000e+00  -3.0228419433274790e-05 0.0000000000000000e+00 0.0000000000000000e+00  -2.7854274967663115e-05 0.0000000000000000e+00 0.0000000000000000e+00  -2.5907112565931485e-05 0.0000000000000000e+00 0.0000000000000000e+00  -2.4342749404068415e-05 0.0000000000000000e+00 0.0000000000000000e+00  -2.3103633108317225e-05 0.0000000000000000e+00 0.0000000000000000e+00  -2.2132066433850734e-05 0.0000000000000000e+00 0.0000000000000000e+00  -2.1375826948127479e-05 0.0000000000000000e+00 0.0000000000000000e+00  -2.0790126798279930e-05 0.0000000000000000e+00 0.0000000000000000e+00  -2.0337749720203540e-05 0.0000000000000000e+00 0.0000000000000000e+00  -1.9988430100199788e-05 0.0000000000000000e+00 0.0000000000000000e+00  -1.9717722219577912e-05 0.0000000000000000e+00 0.0000000000000000e+00  -1.9503330526992541e-05 0.0000000000000000e+00 0.0000000000000000e+00  -1.9032172450908388e-05 0.0000000000000000e+00 0.0000000000000000e+00  -1.8816239308857874e-05 0.0000000000000000e+00 0.0000000000000000e+00  -1.8542879610484442e-05 0.0000000000000000e+00 0.0000000000000000e+00  -1.8189253786796687e-05 0.0000000000000000e+00 0.0000000000000000e+00  -1.7729938665540463e-05 0.0000000000000000e+00 0.0000000000000000e+00  -1.7133007932845079e-05 0.0000000000000000e+00 0.0000000000000000e+00  -1.6358421457069000e-05 0.0000000000000000e+00 0.0000000000000000e+00  -1.5356394411266406e-05 0.0000000000000000e+00 0.0000000000000000e+00  -1.4065367833898470e-05 0.0000000000000000e+00 0.0000000000000000e+00  -1.2410303842436147e-05 0.0000000000000000e+00 0.0000000000000000e+00  -1.0300983083069648e-05 0.0000000000000000e+00 0.0000000000000000e+00  -7.6304586927235488e-06 0.0000000000000000e+00 0.0000000000000000e+00  -4.2725813689074320e-06 0.0000000000000000e+00 0.0000000000000000e+00  -5.2410954245700651e-08 0.0000000000000000e+00 0.0000000000000000e+00  5.0160681495401475e-06 0.0000000000000000e+00 0.0000000000000000e+00  1.0047065131932554e-05 0.0000000000000000e+00 0.0000000000000000e+00  1.4604294515146723e-05 0.0000000000000000e+00 0.0000000000000000e+00  1.8810309576420879e-05 0.0000000000000000e+00 0.0000000000000000e+00  2.2749976413349800e-05 0.0000000000000000e+00 0.0000000000000000e+00  2.6482587564682674e-05 0.0000000000000000e+00 0.0000000000000000e+00  3.0049396922607114e-05 0.0000000000000000e+00 0.0000000000000000e+00  3.3478400561089608e-05 0.0000000000000000e+00 0.0000000000000000e+00  3.6787924020771111e-05 0.0000000000000000e+00 0.0000000000000000e+00  3.9989449076807668e-05 0.0000000000000000e+00 0.0000000000000000e+00  4.3089802082219592e-05 0.0000000000000000e+00 0.0000000000000000e+00  4.6092780070539561e-05 0.0000000000000000e+00 0.0000000000000000e+00  4.9000302222655713e-05 0.0000000000000000e+00 0.0000000000000000e+00  5.1813187907575100e-05 0.0000000000000000e+00 0.0000000000000000e+00  5.4531657999851285e-05 0.0000000000000000e+00 0.0000000000000000e+00  5.7155641092541993e-05 0.0000000000000000e+00 0.0000000000000000e+00  5.9684949521133737e-05 0.0000000000000000e+00 0.0000000000000000e+00  6.2119372592096424e-05 0.0000000000000000e+00 0.0000000000000000e+00  6.4458720038217972e-05 0.0000000000000000e+00 0.0000000000000000e+00  6.6702837506882489e-05 0.0000000000000000e+00 0.0000000000000000e+00  6.8851607984246344e-05 0.0000000000000000e+00 0.0000000000000000e+00  7.0904947552242152e-05 0.0000000000000000e+00 0.0000000000000000e+00  7.2862800588117062e-05 0.0000000000000000e+00 0.0000000000000000e+00  7.4725137605116416e-05 0.0000000000000000e+00 0.0000000000000000e+00  7.6491958131550509e-05 0.0000000000000000e+00 0.0000000000000000e+00  7.8163300877248534e-05 0.0000000000000000e+00 0.0000000000000000e+00  7.9739263744010088e-05 0.0000000000000000e+00 0.0000000000000000e+00  8.1220036632350756e-05 0.0000000000000000e+00 0.0000000000000000e+00  8.2605950044777765e-05 0.0000000000000000e+00 0.0000000000000000e+00  8.3897541617798218e-05 0.0000000000000000e+00 0.0000000000000000e+00  8.5095639934790730e-05 0.0000000000000000e+00 0.0000000000000000e+00  8.6201458745771483e-05 0.0000000000000000e+00 0.0000000000000000e+00  8.7216683389836216e-05 0.0000000000000000e+00 0.0000000000000000e+00  8.8143513063728411e-05 0.0000000000000000e+00 0.0000000000000000e+00  8.8984598050604672e-05 0.0000000000000000e+00 0.0000000000000000e+00  8.9742786206020326e-05 0.0000000000000000e+00 0.0000000000000000e+00  9.0420579906129605e-05 0.0000000000000000e+00 0.0000000000000000e+00  9.1019245860641759e-05 0.0000000000000000e+00 0.0000000000000000e+00  9.1537593222981888e-05 0.0000000000000000e+00 0.0000000000000000e+00  9.1970473534297849e-05 0.0000000000000000e+00 0.0000000000000000e+00  9.2305695539931414e-05 0.0000000000000000e+00 0.0000000000000000e+00  9.2511459382631092e-05 0.0000000000000000e+00 0.0000000000000000e+00  9.0815289007579184e-05 1.1163217462922777e-06 0.0000000000000000e+00  8.9521329580501100e-05 1.4200858402808421e-06 0.0000000000000000e+00  8.8458502781431383e-05 1.4821440464289213e-06 0.0000000000000000e+00  8.7588932828576213e-05 1.4594941039921910e-06 0.0000000000000000e+00  8.6831936765314281e-05 6.8975096554526004e-07 0.0000000000000000e+00  8.6852575123510937e-05 2.3633746049476942e-08 0.0000000000000000e+00  8.6808981682368045e-05 -4.9880499544662502e-07 0.0000000000000000e+00  8.6649541935447896e-05 -8.9807520013718181e-07 0.0000000000000000e+00  8.6355012837643121e-05 -1.2133501309476419e-06 0.0000000000000000e+00  8.5925047102483482e-05 -1.4788322277316144e-06 0.0000000000000000e+00  8.5366835519404391e-05 -1.7181034036519444e-06 0.0000000000000000e+00  8.4689015620877925e-05 -1.9455977549217537e-06 0.0000000000000000e+00  8.3899163965557932e-05 -2.1693499017038253e-06 0.0000000000000000e+00  8.3003101344865908e-05 -2.3933731285977246e-06 0.0000000000000000e+00  8.2004957391178539e-05 -2.6193436605619306e-06 0.0000000000000000e+00  8.0907492097326202e-05 -2.8476840464397221e-06 0.0000000000000000e+00  7.9712454004651621e-05 -3.0782161887474268e-06 0.0000000000000000e+00  7.8420890926688745e-05 -3.3105313250120778e-06 0.0000000000000000e+00  7.7033390683757920e-05 -3.5441830042534090e-06 0.0000000000000000e+00  7.5550254544205626e-05 -3.7787751113213882e-06 0.0000000000000000e+00  7.3971615224860559e-05 -4.0139914850730087e-06 0.0000000000000000e+00  7.2297512959065892e-05 -4.2495957532063644e-06 0.0000000000000000e+00  7.0527941631037437e-05 -4.4854181354740925e-06 0.0000000000000000e+00  6.8662874365900674e-05 -4.7213383961358547e-06 0.0000000000000000e+00  6.6702275286246841e-05 -4.9572696505772747e-06 0.0000000000000000e+00  6.4646101782424371e-05 -5.1931453278795388e-06 0.0000000000000000e+00  6.2494299749943198e-05 -5.4289106131034889e-06 0.0000000000000000e+00  6.0246792852352482e-05 -5.6645197401355174e-06 0.0000000000000000e+00  5.7903465985205471e-05 -5.8999413500823040e-06 0.0000000000000000e+00  5.5464142835630405e-05 -6.1351756511835529e-06 0.0000000000000000e+00  5.2928558016616447e-05 -6.3702893157992807e-06 0.0000000000000000e+00  5.0296326100773000e-05 -6.6054767792431936e-06 0.0000000000000000e+00  4.7566913846554010e-05 -6.8411597114460881e-06 0.0000000000000000e+00  4.4739628951769030e-05 -7.0781391820823647e-06 0.0000000000000000e+00  4.1813650707180556e-05 -7.3178162229952462e-06 0.0000000000000000e+00  3.8788146641460383e-05 -7.5624934763383876e-06 0.0000000000000000e+00  3.5662547711201715e-05 -7.8157589402432081e-06 0.0000000000000000e+00  3.2437094802862481e-05 -8.0829252655356643e-06 0.0000000000000000e+00  2.9113823048858556e-05 -8.3714418912137179e-06 0.0000000000000000e+00  2.5698214444035368e-05 -8.6910937269296822e-06 0.0000000000000000e+00  2.2201809815869293e-05 -9.0536222435844251e-06 0.0000000000000000e+00  1.8646087220907977e-05 -9.4711065354166338e-06 0.0000000000000000e+00  1.5067767893517026e-05 -9.9520259340721054e-06 0.0000000000000000e+00  1.1525104774562630e-05 -1.0493332349738175e-05 0.0000000000000000e+00  8.1032169429951032e-06 -1.1066812473654178e-05 0.0000000000000000e+00  4.9385592997634336e-06 -1.1595409940492574e-05 0.0000000000000000e+00  2.3981113141587150e-06 -1.1926723654516338e-05 0.0000000000000000e+00  7.4322175038497229e-07 -1.2003897698917433e-05 0.0000000000000000e+00  -3.0300567518121464e-07 -1.1935915069315091e-05 0.0000000000000000e+00  -9.8690031562453074e-07 -1.1813418144731702e-05 0.0000000000000000e+00  -1.4439835156992029e-06 -1.1685008800006577e-05 0.0000000000000000e+00  -1.7547776910112033e-06 -1.1571747926764923e-05 0.0000000000000000e+00  -1.9688353797233681e-06 -1.1479815298410799e-05 0.0000000000000000e+00  -2.1176353407508694e-06 -1.1408599671253416e-05 0.0000000000000000e+00  -2.2217583096959476e-06 -1.1354980019184731e-05 0.0000000000000000e+00  -2.2949615927206019e-06 -1.1315337571860392e-05 0.0000000000000000e+00  -2.3465988631496274e-06 -1.1286379649054170e-05 0.0000000000000000e+00  -2.3831099334453572e-06 -1.1265397906084622e-05 0.0000000000000000e+00  -2.4089691847330310e-06 -1.1250279969061630e-05 0.0000000000000000e+00  -2.4275240047946244e-06 -1.1239299506706361e-05 0.0000000000000000e+00  -2.4444106163936355e-06 -1.1229209037544793e-05 0.0000000000000000e+00  -2.4612592876024406e-06 -1.1219048304486227e-05 0.0000000000000000e+00  -2.4799425929166240e-06 -1.1207671936191656e-05 0.0000000000000000e+00  -2.5059337983145177e-06 -1.1191653224493970e-05 0.0000000000000000e+00  -2.5423271959154396e-06 -1.1168843325313305e-05 0.0000000000000000e+00  -2.5931996246287220e-06 -1.1136204858098666e-05 0.0000000000000000e+00  -2.6641427334710472e-06 -1.1089194052411875e-05 0.0000000000000000e+00  -2.7627462894791745e-06 -1.1020883501235119e-05 0.0000000000000000e+00  -2.8991590812303830e-06 -1.0920473315841829e-05 0.0000000000000000e+00  -3.0866603477725833e-06 -1.0770706684058970e-05 0.0000000000000000e+00  -3.3420763273424041e-06 -1.0543319218681892e-05 0.0000000000000000e+00  -3.6856943183221229e-06 -1.0191039116861803e-05 0.0000000000000000e+00  -4.1399754564586862e-06 -9.6339847123300625e-06 0.0000000000000000e+00  -4.7254582969648775e-06 -8.7381575853876694e-06 0.0000000000000000e+00  -5.4713103840490729e-06 -7.2316142954650721e-06 0.0000000000000000e+00  -6.2128407654815014e-06 -5.0985394960382762e-06 0.0000000000000000e+00  -6.7552614022708497e-06 -2.4453909439711671e-06 0.0000000000000000e+00  -6.9129830165816608e-06 3.3688302974157635e-07 0.0000000000000000e+00  -6.6563132063029997e-06 3.1071866823495593e-06 0.0000000000000000e+00  -6.0160187929152141e-06 5.7563376750449840e-06 0.0000000000000000e+00  -5.0526752305930722e-06 8.1347006974255567e-06 0.0000000000000000e+00  -3.8083422587326651e-06 1.0051403566892799e-05 0.0000000000000000e+00  -2.2586330723627994e-06 1.1335410300270900e-05 0.0000000000000000e+00  -3.2007461102237234e-07 1.1933896254210378e-05 0.0000000000000000e+00  2.0750922484810644e-06 1.1954242350079518e-05 0.0000000000000000e+00  4.9130510520773082e-06 1.1599366697354021e-05 0.0000000000000000e+00  8.1032069730511536e-06 1.1066787003510741e-05 0.0000000000000000e+00  1.1525116056275076e-05 1.0493318185776297e-05 0.0000000000000000e+00  1.5067776420662118e-05 9.9520149184785760e-06 0.0000000000000000e+00  1.8646093841055126e-05 9.4711020816309558e-06 0.0000000000000000e+00  2.2201813520289006e-05 9.0536191383280895e-06 0.0000000000000000e+00  2.5698216695263452e-05 8.6910922739447805e-06 0.0000000000000000e+00  2.9113824632598125e-05 8.3714414128696113e-06 0.0000000000000000e+00  3.2437095927132104e-05 8.0829250485835298e-06 0.0000000000000000e+00  3.5662548368904828e-05 7.8157590389833295e-06 0.0000000000000000e+00  3.8788147026617167e-05 7.5624936685290486e-06 0.0000000000000000e+00  4.1813650870205050e-05 7.3178164939476377e-06 0.0000000000000000e+00  4.4739629025932558e-05 7.0781394114789666e-06 0.0000000000000000e+00  4.7566913827064507e-05 6.8411599179597214e-06 0.0000000000000000e+00  5.0296326070631190e-05 6.6054769335534596e-06 0.0000000000000000e+00  5.2928557964824428e-05 6.3702894318594726e-06 0.0000000000000000e+00  5.5464142796542240e-05 6.1351757312924359e-06 0.0000000000000000e+00  5.7903465948571357e-05 5.8999414027810390e-06 0.0000000000000000e+00  6.0246792826979739e-05 5.6645197748623224e-06 0.0000000000000000e+00  6.2494299731129715e-05 5.4289106346451579e-06 0.0000000000000000e+00  6.4646101770990538e-05 5.1931453424830585e-06 0.0000000000000000e+00  6.6702275278718087e-05 4.9572696625319589e-06 0.0000000000000000e+00  6.8662874360654830e-05 4.7213384089967244e-06 0.0000000000000000e+00  7.0527941622434414e-05 4.4854181527750522e-06 0.0000000000000000e+00  7.2297512943282253e-05 4.2495957756219445e-06 0.0000000000000000e+00  7.3971615189692794e-05 4.0139915136203526e-06 0.0000000000000000e+00  7.5550254477945870e-05 3.7787751424447604e-06 0.0000000000000000e+00  7.7033390560759426e-05 3.5441830280396625e-06 0.0000000000000000e+00  7.8420890719098195e-05 3.3105313278911749e-06 0.0000000000000000e+00  7.9712453669611384e-05 3.0782161259660495e-06 0.0000000000000000e+00  8.0907491586318367e-05 2.8476838791620450e-06 0.0000000000000000e+00  8.2004956667591983e-05 2.6193432215511127e-06 0.0000000000000000e+00  8.3003100347102065e-05 2.3933723473697210e-06 0.0000000000000000e+00  8.3899162764189419e-05 2.1693484397838809e-06 0.0000000000000000e+00  8.4689014461173322e-05 1.9455953100888544e-06 0.0000000000000000e+00  8.5366835673940077e-05 1.7180988907159071e-06 0.0000000000000000e+00  8.5925049771046661e-05 1.4788267362316963e-06 0.0000000000000000e+00  8.6355019126775490e-05 1.2133439171014217e-06 0.0000000000000000e+00  8.6649549325114466e-05 8.9805694982291202e-07 0.0000000000000000e+00  8.6808967059763526e-05 4.9884572457195089e-07 0.0000000000000000e+00  8.6852614267401499e-05 -2.3607828180907795e-08 0.0000000000000000e+00  8.6831919193408843e-05 -6.8977696890906068e-07 0.0000000000000000e+00  8.7588980868087005e-05 -1.4594745872534509e-06 0.0000000000000000e+00  8.8458507226644108e-05 -1.4821523242317823e-06 0.0000000000000000e+00  8.9521403535079903e-05 -1.4200810190309498e-06 0.0000000000000000e+00  9.0815361620634862e-05 -1.1165272604237600e-06 0.0000000000000000e+00  -2.3352568080318151e-05 -7.3256721411942525e-07 0.0000000000000000e+00  -1.7171303772789121e-06 -1.1452612019370641e-05 0.0000000000000000e+00  -3.4005424236055554e-06 -1.0570584458369119e-05 0.0000000000000000e+00  -1.3612511604598944e-05 -1.0322472663398770e-06 0.0000000000000000e+00  -1.9322027491904114e-05 -1.0173464739037580e-07 0.0000000000000000e+00  -1.8015850827861744e-05 -2.4118476384776448e-07 0.0000000000000000e+00  -2.0264037108004764e-05 -2.2189174847840352e-07 0.0000000000000000e+00  -2.4628431880585477e-06 -1.1216161510427659e-05 0.0000000000000000e+00  -2.3625957546339894e-06 -1.1268191938566665e-05 0.0000000000000000e+00  -2.5888346667423887e-06 -1.1136391749652715e-05 0.0000000000000000e+00  -2.6332666132520537e-05 -1.7377361427540058e-06 0.0000000000000000e+00  -1.8922636836816416e-07 -1.1522477483036827e-05 0.0000000000000000e+00  -5.4042913903963161e-06 -8.9446616186435854e-06 0.0000000000000000e+00  -6.7545026279614372e-06 -2.0604725375798095e-06 0.0000000000000000e+00  -2.2274365018001135e-06 -1.1330348268944931e-05 0.0000000000000000e+00  -2.3784430084348224e-06 -1.1235530512593120e-05 0.0000000000000000e+00  -1.6791417298947888e-05 -4.2966064118737967e-07 0.0000000000000000e+00  -1.7370547769870066e-05 -8.5315434167051923e-07 0.0000000000000000e+00  -2.7665185881775396e-06 -1.1018033047742719e-05 0.0000000000000000e+00  -2.1053585102722942e-05 -4.3863679238856548e-07 0.0000000000000000e+00  -8.0340609021229406e-06 -6.1663796902888312e-06 0.0000000000000000e+00  3.6824513076747451e-06 -1.0806921415694327e-05 0.0000000000000000e+00  -2.7353392835613908e-06 -1.1035220227226999e-05 0.0000000000000000e+00  -2.0090250348325518e-0