<?xml version="1.0"?>
<VTKFile type="UnstructuredGrid"  version="0.1"  >
<UnstructuredGrid>
<Piece  NumberOfPoints="4527" NumberOfCells="8794">
<Points>
<DataArray  type="Float64"  NumberOfComponents="3"  format="ascii">-10 0 0  -1 0 0  1 0 0  10 0 0  10 1 0  -10 1 0  -9.800000000000763 0 0  -9.600000000001527 0 0  -9.40000000000229 0 0  -9.200000000003053 0 0  -9.000000000003816 0 0  -8.80000000000458 0 0  -8.600000000005343 0 0  -8.400000000006106 0 0  -8.200000000006868 0 0  -8.000000000007633 0 0  -7.800000000008396 0 0  -7.600000000009159 0 0  -7.400000000009922 0 0  -7.200000000010686 0 0  -7.000000000011449 0 0  -6.800000000012212 0 0  -6.600000000012975 0 0  -6.400000000013739 0 0  -6.200000000014501 0 0  -6.000000000015264 0 0  -5.800000000016028 0 0  -5.600000000016792 0 0  -5.400000000016568 0 0  -5.200000000015357 0 0  -5.000000000014145 0 0  -4.800000000012934 0 0  -4.600000000011723 0 0  -4.400000000010511 0 0  -4.2000000000093 0 0  -4.000000000008089 0 0  -3.800000000006878 0 0  -3.600000000005666 0 0  -3.400000000004457 0 0  -3.200000000003246 0 0  -3.000000000002038 0 0  -2.800000000000828 0 0  -2.59999999999962 0 0  -2.39999999999841 0 0  -2.199999999997201 0 0  -1.999999999996261 0 0  -1.799999999996947 0 0  -1.59999999999771 0 0  -1.399999999998474 0 0  -1.199999999999235 0 0  -0.8016374357161544 0 0  -0.603274871432309 0 0  -0.4049123071484634 0 0  -0.2065497428646179 0 0  -0.0081871785807619 0 0  0.1901753857041282 0 0  0.3885379499890742 0 0  0.5646218600649491 0 0  0.6907055769383663 0 0  0.7805651581494999 0 0  0.8445960938077421 0 0  0.8902241391700567 0 0  0.9227384041807414 0 0  0.9459078689681939 0 0  0.9624182849220737 0 0  0.97418350865662 0 0  0.9825673314454979 0 0  0.9885415938859718 0 0  0.9927988155772318 0 0  0.9958324853193514 0 0  0.9980163743571506 0 0  1.001993944789576 0 0  1.004194076715927 0 0  1.007257145440372 0 0  1.011563207362514 0 0  1.017616668017687 0 0  1.026126621363259 0 0  1.038089913392309 0 0  1.054907908104766 0 0  1.078550638918175 0 0  1.111787586290538 0 0  1.158512093595367 0 0  1.224197379641475 0 0  1.316540892392042 0 0  1.447353036987318 0 0  1.625557255227157 0 0  1.824826362733337 0 0  2.02422084169089 0 0  2.223615320648039 0 0  2.423009799605151 0 0  2.622404278562262 0 0  2.821798757519374 0 0  3.021193236476485 0 0  3.220587715433596 0 0  3.419982194390707 0 0  3.619376673347819 0 0  3.81877115230493 0 0  4.018165631262042 0 0  4.217560110219153 0 0  4.416954589176264 0 0  4.616349068133376 0 0  4.815743547090486 0 0  5.015138026047598 0 0  5.21453250500471 0 0  5.413926983961821 0 0  5.61332146292005 0 0  5.812715941879127 0 0  6.012110420838206 0 0  6.211504899797285 0 0  6.410899378756362 0 0  6.61029385771544 0 0  6.809688336674516 0 0  7.009082815633596 0 0  7.208477294592674 0 0  7.407871773551752 0 0  7.607266252510829 0 0  7.806660731469907 0 0  8.006055210428762 0 0  8.205449689385997 0 0  8.404844168343109 0 0  8.604238647300221 0 0  8.803633126257331 0 0  9.003027605214443 0 0  9.202422084171554 0 0  9.401816563128666 0 0  9.601211042085778 0 0  9.800605521042888 0 0  10 0.1999999999995579 0  10 0.3999999999989749 0  10 0.5999999999989468 0  10 0.7999999999994734 0  9.800481300619087 1 0  9.600962601238173 1 0  9.401443901857261 1 0  9.201925202476348 1 0  9.002406503095434 1 0  8.802887803714521 1 0  8.603369104333607 1 0  8.403850404952696 1 0  8.204331705571782 1 0  8.004813006190869 1 0  7.805294306809956 1 0  7.605775607429099 1 0  7.406256908048615 1 0  7.206738208668519 1 0  7.007219509288491 1 0  6.807700809908464 1 0  6.608182110528437 1 0  6.40866341114841 1 0  6.209144711768383 1 0  6.009626012388356 1 0  5.810107313008329 1 0  5.610588613628302 1 0  5.411069914248275 1 0  5.211551214868247 1 0  5.01203251548822 1 0  4.812513816108193 1 0  4.612995116728166 1 0  4.413476417348139 1 0  4.21395771796811 1 0  4.014439018588084 1 0  3.814920319208057 1 0  3.61540161982803 1 0  3.415882920448004 1 0  3.216364221067975 1 0  3.016845521687949 1 0  2.817326822307922 1 0  2.617808122927895 1 0  2.418289423547868 1 0  2.21877072416784 1 0  2.019252024787787 1 0  1.819733325407194 1 0  1.621888404810083 1 0  1.444971327520228 1 0  1.314582473328786 1 0  1.222733835358929 1 0  1.157436884849531 1 0  1.110998486360161 1 0  1.07797206118723 1 0  1.054484067069733 1 0  1.037779687924344 1 0  1.025899736802284 1 0  1.017450858410317 1 0  1.011442119041432 1 0  1.007168775654813 1 0  1.004129625733448 1 0  1.001942500985756 1 0  0.9999473139919477 1 0  0.997952126998138 1 0  0.9957344283294098 1 0  0.9926400433022327 1 0  0.9882890338921495 1 0  0.9821710888008504 1 0  0.9735686567885118 1 0  0.9614727925552309 1 0  0.9444648183814941 1 0  0.9205499412755067 1 0  0.8869232761431647 1 0  0.8396408807257743 1 0  0.7731571987398915 1 0  0.6796402578843477 1 0  0.5431676560342584 1 0  0.3721385030115911 1 0  0.1754536684265453 1 0  -0.02406503095436463 1 0  -0.2235837303352799 1 0  -0.4231024297161916 1 0  -0.6226211290971033 1 0  -0.8221398284780168 1 0  -1.021658527858929 1 0  -1.221177227239842 1 0  -1.420695926620754 1 0  -1.620214626001665 1 0  -1.819733325382579 1 0  -2.019252024763492 1 0  -2.218770724144406 1 0  -2.418289423525318 1 0  -2.617808122906231 1 0  -2.817326822287143 1 0  -3.016845521668055 1 0  -3.216364221048968 1 0  -3.41588292042988 1 0  -3.615401619810793 1 0  -3.814920319191707 1 0  -4.014439018572617 1 0  -4.213957717953532 1 0  -4.413476417334447 1 0  -4.612995116715359 1 0  -4.812513816096271 1 0  -5.012032515477184 1 0  -5.211551214858098 1 0  -5.411069914239011 1 0  -5.610588613619923 1 0  -5.810107313000834 1 0  -6.009626012381748 1 0  -6.209144711762661 1 0  -6.408663411143575 1 0  -6.608182110524485 1 0  -6.807700809905398 1 0  -7.007219509286312 1 0  -7.206738208667222 1 0  -7.406256908048135 1 0  -7.605775607429049 1 0  -7.805294306809959 1 0  -8.004813006190872 1 0  -8.204331705571786 1 0  -8.403850404952699 1 0  -8.603369104333613 1 0  -8.802887803714526 1 0  -9.002406503095436 1 0  -9.20192520247635 1 0  -9.401443901857263 1 0  -9.600962601238173 1 0  -9.80048130061909 1 0  -10 0.7999999999999998 0  -10 0.6000000000013869 0  -10 0.4000000000016644 0  -10 0.2000000000008322 0  0.9133836821952257 0.02434441494663643 0  1.098555576901312 0.9601663770543256 0  0.9094088635981978 0.9674431558876251 0  1.088528247793151 0.03371460656204428 0  0.9989917151641592 0.001602818167175451 0  1.013896969494939 0.005240692788648887 0  0.9857782217747304 0.004848383997867619 0  0.998853404610808 0.9982035071153033 0  1.013143220843546 0.9937812162524646 0  0.9853635599833104 0.9958855257685639 0  0.7402332092670584 0.08988485690792226 0  1.247754800300646 0.9229205241493388 0  0.7348397402239413 0.9022277258878831 0  1.253876046904646 0.09215631093387915 0  1.031267411960121 0.9887294227510799 0  1.019916477002632 0.9789566363335769 0  1.031624400550768 0.01096368035898473 0  1.020933426489232 0.02126804061095226 0  0.9676823948866133 0.9905725619179506 0  0.9690087374657101 0.01125478969212642 0  0.4909197859951867 0.8353853212549748 0  1.533429866165156 0.8669326283017784 0  0.9777864891345911 0.9813609324229114 0  0.97820068964452 0.01927059026948361 0  0.9941872358158175 0.9976998002861585 0  0.9943156504482888 0.002259269224574114 0  1.002994684098055 0.002038607724316814 0  1.002993061744177 0.9978982973627537 0  0.4765799050270116 0.1308424205696732 0  1.521134174142395 0.1501946060398224 0  0.09003027254578624 0.1625600284744811 0  1.918461057854756 0.8332501105698671 0  -0.3109060564889265 0.1674876297500414 0  9.302780182844312 0.1750237598831363 0  -0.7087250005775128 0.1674387891251732 0  8.92396618812599 0.1853479912734875 0  8.504602640055891 0.1587899434788372 0  8.105672348438038 0.1710756745806549 0  7.706888670631024 0.1710777027852234 0  7.308072881210555 0.1710756868094612 0  6.909289202745669 0.1710777046239838 0  6.510596618235902 0.1726806841529221 0  6.111807660317747 0.1726806841529233 0  5.713018702399589 0.1726806841525549 0  5.31387454292198 0.171202393233529 0  4.915346181105313 0.1728226710116572 0  4.516651828654819 0.1726806841512195 0  4.117862870740598 0.1726806841512199 0  3.718632291732633 0.1712291158605383 0  3.320379560375879 0.1728226710116588 0  2.923212199490094 0.1684581689645827 0  2.52015902530377 0.1711235817196708 0  -9.306721315296459 0.8072472278362141 0  -8.907456061637179 0.8080960466615467 0  -8.508190807977902 0.8089456601396764 0  -8.108925554318626 0.8097960917672007 0  -7.709660300659344 0.8106473659762959 0  -7.310395047000064 0.8114995081817321 0  -6.911129793340787 0.8123525448308132 0  -6.511864539681508 0.8132065034563511 0  -6.112599286022228 0.8140614127328966 0  -1.099999999999618 0.1724960502929298 0  -5.713334032362946 0.8149173025366028 0  -5.314068778703666 0.815774204008803 0  -4.914803525044385 0.8166321496236856 0  -4.515538271385106 0.8174911732604075 0  -4.116273017725823 0.8183513102798836 0  -3.717007764066542 0.8192125976067042 0  -3.317742510407262 0.820075073816538 0  -2.918477256747981 0.8221788923402839 0  -2.519677295037874 0.8228600452131328 0  -2.120320899419612 0.8235662481751922 0  -1.72096450380135 0.8242724511372496 0  -1.32160810818317 0.8249786540990465 0  2.123996975386627 0.1728136471259561 0  9.518200388618855 0.8209250207317376 0  9.09577279450993 0.8308243358880303 0  8.703128454024062 0.8340258036217687 0  8.304015856583989 0.8270988729595665 0  7.9051062797985 0.8271809903189038 0  7.505941059060565 0.8270988729599247 0  7.107031482276735 0.8271809903195346 0  6.70786626154007 0.8270988729601242 0  6.308847619621169 0.8273003321325789 0  5.910062229780448 0.8271337021455001 0  5.510754065259906 0.8270988729601207 0  5.111791865178233 0.827211737806866 0  4.712822125310879 0.8272853620702432 0  4.313912634740229 0.8271337021455009 0  3.91460447021969 0.8270988729601227 0  3.515642270138018 0.8272117378068669 0  -9.49774789593992 0.1640769978724947 0  3.116693604597933 0.8271884166645003 0  2.71764267129629 0.8270988729601
[...]
<PointData  Tensors="f_254"> 
<DataArray  type="Float64"  Name="f_254"  NumberOfComponents="9" format="ascii">-6.6047664064552043e-03 -2.8100720362319531e-02 0.0000000000000000e+00 -2.8100720362319531e-02 -1.0075858621803781e-01 0.0000000000000000e+00 0.0000000000000000e+00 0.0000000000000000e+00 0.0000000000000000e+00  -9.2995661816753517e-01 1.4915805960961059e-01 0.0000000000000000e+00 1.4915805960961059e-01 7.4885931884343324e-02 0.0000000000000000e+00 0.0000000000000000e+00 0.0000000000000000e+00 0.0000000000000000e+00  1.4857500757069098e+00 1.1867917572233119e-01 0.0000000000000000e+00 1.1867917572233119e-01 -2.8932973089205338e-01 0.0000000000000000e+00 0.0000000000000000e+00 0.0000000000000000e+00 0.0000000000000000e+00  6.5896337164374303e-03 -2.8097510988360302e-02 0.0000000000000000e+00 -2.8097510988360302e-02 1.0087463966637938e-01 0.0000000000000000e+00 0.0000000000000000e+00 0.0000000000000000e+00 0.0000000000000000e+00  2.7302405336040607e-04 -1.9605301342896043e-04 0.0000000000000000e+00 -1.9605301342896043e-04 3.7584135998394740e-05 0.0000000000000000e+00 0.0000000000000000e+00 0.0000000000000000e+00 0.0000000000000000e+00  -2.7617935803734851e-04 -2.0980563577641586e-04 0.0000000000000000e+00 -2.0980563577641586e-04 -2.3709719999642893e-05 0.0000000000000000e+00 0.0000000000000000e+00 0.0000000000000000e+00 0.0000000000000000e+00  -2.2077348056673027e-02 -2.9938717210252493e-02 0.0000000000000000e+00 -2.9938717210252493e-02 -2.6577113268710439e-02 0.0000000000000000e+00 0.0000000000000000e+00 0.0000000000000000e+00 0.0000000000000000e+00  -2.2982081552170623e-02 -2.9931557696461893e-02 0.0000000000000000e+00 -2.9931557696461893e-02 -1.0557061910373644e-02 0.0000000000000000e+00 0.0000000000000000e+00 0.0000000000000000e+00 0.0000000000000000e+00  -2.6234955661074564e-02 -2.9988878434818220e-02 0.0000000000000000e+00 -2.9988878434818220e-02 -3.8781900639560806e-03 0.0000000000000000e+00 0.0000000000000000e+00 0.0000000000000000e+00 0.0000000000000000e+00  -3.0248012617570184e-02 -2.9994314827903615e-02 0.0000000000000000e+00 -2.9994314827903615e-02 -6.1903138205534496e-04 0.0000000000000000e+00 0.0000000000000000e+00 0.0000000000000000e+00 0.0000000000000000e+00  -3.4636354263503769e-02 -2.9996926544966971e-02 0.0000000000000000e+00 -2.9996926544966971e-02 9.1702650045889572e-04 0.0000000000000000e+00 0.0000000000000000e+00 0.0000000000000000e+00 0.0000000000000000e+00  -3.9328173932643810e-02 -2.9998070501404166e-02 0.0000000000000000e+00 -2.9998070501404166e-02 1.4854514420599475e-03 0.0000000000000000e+00 0.0000000000000000e+00 0.0000000000000000e+00 0.0000000000000000e+00  -4.4297948834111603e-02 -2.9998737581678616e-02 0.0000000000000000e+00 -2.9998737581678616e-02 1.5318168662362349e-03 0.0000000000000000e+00 0.0000000000000000e+00 0.0000000000000000e+00 0.0000000000000000e+00  -4.9520818193918743e-02 -2.9999184995658103e-02 0.0000000000000000e+00 -2.9999184995658103e-02 1.3321805248712728e-03 0.0000000000000000e+00 0.0000000000000000e+00 0.0000000000000000e+00 0.0000000000000000e+00  -5.4961144313038481e-02 -2.9999494105431970e-02 0.0000000000000000e+00 -2.9999494105431970e-02 1.0496036473679668e-03 0.0000000000000000e+00 0.0000000000000000e+00 0.0000000000000000e+00 0.0000000000000000e+00  -6.0576401041890188e-02 -2.9999702852874979e-02 0.0000000000000000e+00 -2.9999702852874979e-02 7.7096041046271428e-04 0.0000000000000000e+00 0.0000000000000000e+00 0.0000000000000000e+00 0.0000000000000000e+00  -6.6324047296581229e-02 -2.9999837933056581e-02 0.0000000000000000e+00 -2.9999837933056581e-02 5.3498044939707977e-04 0.0000000000000000e+00 0.0000000000000000e+00 0.0000000000000000e+00 0.0000000000000000e+00  -7.2166541800326570e-02 -2.9999920902333568e-02 0.0000000000000000e+00 -2.9999920902333568e-02 3.5266598996224542e-04 0.0000000000000000e+00 0.0000000000000000e+00 0.0000000000000000e+00 0.0000000000000000e+00  -7.8073640434765099e-02 -2.9999968784486800e-02 0.0000000000000000e+00 -2.9999968784486800e-02 2.2091841756476254e-04 0.0000000000000000e+00 0.0000000000000000e+00 0.0000000000000000e+00 0.0000000000000000e+00  -8.4022632742635481e-02 -2.9999994248751206e-02 0.0000000000000000e+00 -2.9999994248751206e-02 1.3083762220899092e-04 0.0000000000000000e+00 0.0000000000000000e+00 0.0000000000000000e+00 0.0000000000000000e+00  -8.9997427979852010e-02 -3.0000006230119371e-02 0.0000000000000000e+00 -3.0000006230119371e-02 7.2290626365258774e-05 0.0000000000000000e+00 0.0000000000000000e+00 0.0000000000000000e+00 0.0000000000000000e+00  -9.5987196040536904e-02 -3.0000010579526892e-02 0.0000000000000000e+00 -3.0000010579526892e-02 3.6100836792132836e-05 0.0000000000000000e+00 0.0000000000000000e+00 0.0000000000000000e+00 0.0000000000000000e+00  -1.0198498891080017e-01 -3.0000011035715615e-02 0.0000000000000000e+00 -3.0000011035715615e-02 1.4847121876510737e-05 0.0000000000000000e+00 0.0000000000000000e+00 0.0000000000000000e+00 0.0000000000000000e+00  -1.0798654508056062e-01 -3.0000009731065636e-02 0.0000000000000000e+00 -3.0000009731065636e-02 2.9264759369277948e-06 0.0000000000000000e+00 0.0000000000000000e+00 0.0000000000000000e+00 0.0000000000000000e+00  -1.1398934142119593e-01 -3.0000007811514545e-02 0.0000000000000000e+00 -3.0000007811514545e-02 -3.7185255683833748e-06 0.0000000000000000e+00 0.0000000000000000e+00 0.0000000000000000e+00 0.0000000000000000e+00  -1.1999187969385022e-01 -3.0000005744233230e-02 0.0000000000000000e+00 -3.0000005744233230e-02 -7.9812304779365392e-06 0.0000000000000000e+00 0.0000000000000000e+00 0.0000000000000000e+00 0.0000000000000000e+00  -1.2599316337227878e-01 -3.0000003551733330e-02 0.0000000000000000e+00 -3.0000003551733330e-02 -1.1961465360374701e-05 0.0000000000000000e+00 0.0000000000000000e+00 0.0000000000000000e+00 0.0000000000000000e+00  -1.3199233307099031e-01 -3.0000011080040027e-02 0.0000000000000000e+00 -3.0000011080040027e-02 -1.7288997939380570e-05 0.0000000000000000e+00 0.0000000000000000e+00 0.0000000000000000e+00 0.0000000000000000e+00  -1.3798830630662831e-01 -3.0000014994496060e-02 0.0000000000000000e+00 -3.0000014994496060e-02 -2.5231658061888607e-05 0.0000000000000000e+00 0.0000000000000000e+00 0.0000000000000000e+00 0.0000000000000000e+00  -1.4397965425250506e-01 -3.0000010901865385e-02 0.0000000000000000e+00 -3.0000010901865385e-02 -3.6743157465007800e-05 0.0000000000000000e+00 0.0000000000000000e+00 0.0000000000000000e+00 0.0000000000000000e+00  -1.4996442942520727e-01 -3.0000011203119153e-02 0.0000000000000000e+00 -3.0000011203119153e-02 -5.2594382994245969e-05 0.0000000000000000e+00 0.0000000000000000e+00 0.0000000000000000e+00 0.0000000000000000e+00  -1.5594007117877856e-01 -3.0000027335865584e-02 0.0000000000000000e+00 -3.0000027335865584e-02 -7.2655333284652861e-05 0.0000000000000000e+00 0.0000000000000000e+00 0.0000000000000000e+00 0.0000000000000000e+00  -1.6190370287539049e-01 -2.9999995861388899e-02 0.0000000000000000e+00 -2.9999995861388899e-02 -9.4275652209414217e-05 0.0000000000000000e+00 0.0000000000000000e+00 0.0000000000000000e+00 0.0000000000000000e+00  -1.6785241371299248e-01 -3.0000006071666467e-02 0.0000000000000000e+00 -3.0000006071666467e-02 -1.1289952320260771e-04 0.0000000000000000e+00 0.0000000000000000e+00 0.0000000000000000e+00 0.0000000000000000e+00  -1.7378520471530659e-01 -2.9999919644112766e-02 0.0000000000000000e+00 -2.9999919644112766e-02 -1.1623620595312217e-04 0.0000000000000000e+00 0.0000000000000000e+00 0.0000000000000000e+00 0.0000000000000000e+00  -1.7970383974074275e-01 -2.9999877008994737e-02 0.0000000000000000e+00 -2.9999877008994737e-02 -8.4159239087864868e-05 0.0000000000000000e+00 0.0000000000000000e+00 0.0000000000000000e+00 0.0000000000000000e+00  -1.8561996806476611e-01 -2.9999684723063236e-02 0.0000000000000000e+00 -2.9999684723063236e-02 1.9784853938107233e-05 0.0000000000000000e+00 0.0000000000000000e+00 0.0000000000000000e+00 0.0000000000000000e+00  -1.9155686603078764e-01 -2.9999452655812810e-02 0.0000000000000000e+00 -2.9999452655812810e-02 2.5526513393739532e-04 0.0000000000000000e+00 0.0000000000000000e+00 0.0000000000000000e+00 0.0000000000000000e+00  -1.9756879044966660e-01 -2.9999112480581121e-02 0.0000000000000000e+00 -2.9999112480581121e-02 7.0852744230575011e-04 0.0000000000000000e+00 0.0000000000000000e+00 0.0000000000000000e+00 0.0000000000000000e+00  -2.0374372972712651e-01 -2.9998369147231668e-02 0.0000000000000000e+00 -2.9998369147231668e-02 1.5208424212062035e-03 0.0000000000000000e+00 0.0000000000000000e+00 0.0000000000000000e+00 0.0000000000000000e+00  -2.1024634454502253e-01 -2.9997961307864991e-02 0.0000000000000000e+00 -2.9997961307864991e-02 2.8570889063377239e-03 0.0000000000000000e+00 0.0000000000000000e+00 0.0000000000000000e+00 0.0000000000000000e+00  -2.1732106540150284e-01 -2.9996043051105037e-02 0.0000000000000000e+00 -2.9996043051105037e-02 4.9894456151707662e-03 0.0000000000000000e+00 0.0000000000000000e+00 0.0000000000000000e+00 0.0000000000000000e+00  -2.2537199282723952e-01 -2.9996003044888215e-02 0.0000000000000000e+00 -2.9996003044888215e-02 8.1502924433158735e-03 0.0000000000000000e+00 0.0000000000000000e+00 0.0000000000000000e+00 0.0000000000000000e+00  -2.3497048958117114e-01 -2.9991370352070574e-02 0.0000000000000000e+00 -2.9991370352070574e-02 1.2746102423445572e-02 0.0000000000000000e+00 0.0000000000000000e+00 0.0000000000000000e+00 0.0000000000000000e+00  -2.4699172351388576e-01 -2.9986953764517533e-02 0.0000000000000000e+00 -2.9986953764517533e-02 1.8988182740819766e-02 0.0000000000000000e+00 0.0000000000000000e+00 0.0000000000000000e+00 0.0000000000000000e+00  -2.6272714703650435e-01 -2.9989028229956288e-02 0.0000000000000000e+00 -2.9989028229956288e-02 2.6991375224384422e-02 0.0000000000000000e+00 0.0000000000000000e+00 0.0000000000000000e+00 0.0000000000000000e+00  -2.8430751344216704e-01 -3.0023197610994978e-02 0.0000000000000000e+00 -3.0023197610994978e-02 3.7028655097415458e-02 0.0000000000000000e+00 0.0000000000000000e+00 0.0000000000000000e+00 0.0000000000000000e+00  -3.1551891818951666e-01 -3.0054538817214302e-02 0.0000000000000000e+00 -3.0054538817214302e-02 4.8863115838612865e-02 0.0000000000000000e+00 0.0000000000000000e+00 0.0000000000000000e+00 0.0000000000000000e+00  -3.6440262669649193e-01 -3.0005769983730005e-02 0.0000000000000000e+00 -3.0005769983730005e-02 6.2561554722110516e-02 0.0000000000000000e+00 0.0000000000000000e+00 0.0000000000000000e+00 0.0000000000000000e+00  -4.7511625077279068e-01 -3.4372965459407621e-02 0.0000000000000000e+00 -3.4372965459407621e-02 7.2661794656582790e-02 0.0000000000000000e+00 0.0000000000000000e+00 0.0000000000000000e+00 0.0000000000000000e+00  -4.2608792536517098e-01 2.7415448139493093e-01 0.0000000000000000e+00 2.7415448139493093e-01 6.9958965635604761e-02 0.0000000000000000e+00 0.0000000000000000e+00 0.0000000000000000e+00 0.0000000000000000e+00  -2.6743770149589996e-01 2.7013847197740737e-01 0.0000000000000000e+00 2.7013847197740737e-01 5.5709354420070828e-02 0.0000000000000000e+00 0.0000000000000000e+00 0.0000000000000000e+00 0.0000000000000000e+00  -1.6634127171354499e-01 2.7004202456407062e-01 0.0000000000000000e+00 2.7004202456407062e-01 3.6998893909689343e-02 0.0000000000000000e+00 0.0000000000000000e+00 0.0000000000000000e+00 0.0000000000000000e+00  -8.1738369785743864e-02 2.7002171602062475e-01 0.0000000000000000e+00 2.7002171602062475e-01 1.8826022763561927e-02 0.0000000000000000e+00 0.0000000000000000e+00 0.0000000000000000e+00 0.0000000000000000e+00  -3.1901736301219960e-03 2.7001214545805119e-01 0.0000000000000000e+00 2.7001214545805119e-01 7.4884146456330848e-04 0.0000000000000000e+00 0.0000000000000000e+00 0.0000000000000000e+00 0.0000000000000000e+00  7.5121411813031003e-02 2.7000628704257457e-01 0.0000000000000000e+00 2.7000628704257457e-01 -1.7337967202084397e-02 0.0000000000000000e+00 0.0000000000000000e+00 0.0000000000000000e+00 0.0000000000000000e+00  1.5890470667312936e-01 2.6999070031859917e-01 0.0000000000000000e+00 2.6999070031859917e-01 -3.5511227911381192e-02 0.0000000000000000e+00 0.0000000000000000e+00 0.0000000000000000e+00 0.0000000000000000e+00  2.4521479339941613e-01 2.7000790844216027e-01 0.0000000000000000e+00 2.7000790844216027e-01 -5.2073268630003992e-02 0.0000000000000000e+00 0.0000000000000000e+00 0.0000000000000000e+00 0.0000000000000000e+00  3.2175215108733607e-01 2.7005071865731861e-01 0.0000000000000000e+00 2.7005071865731861e-01 -6.5161703442122798e-02 0.0000000000000000e+00 0.0000000000000000e+00 0.0000000000000000e+00 0.0000000000000000e+00  3.9187671513999833e-01 2.7011156261525560e-01 0.0000000000000000e+00 2.7011156261525560e-01 -7.6247470650807975e-02 0.0000000000000000e+00 0.0000000000000000e+00 0.0000000000000000e+00 0.0000000000000000e+00  4.5776093256593964e-01 2.6999196508767942e-01 0.0000000000000000e+00 2.6999196508767942e-01 -8.5691811264686668e-02 0.0000000000000000e+00 0.0000000000000000e+00 0.0000000000000000e+00 0.0000000000000000e+00  5.2178224672151663e-01 2.7014325797212169e-01 0.0000000000000000e+00 2.7014325797212169e-01 -9.5826315735508413e-02 0.0000000000000000e+00 0.0000000000000000e+00 0.0000000000000000e+00 0.0000000000000000e+00  5.8481900845264290e-01 2.6997749432337376e-01 0.0000000000000000e+00 2.6997749432337376e-01 -1.0459661223185805e-01 0.0000000000000000e+00 0.0000000000000000e+00 0.0000000000000000e+00 0.0000000000000000e+00  6.4750742077872370e-01 2.6997408002939488e-01 0.0000000000000000e+00 2.6997408002939488e-01 -1.1341088721838560e-01 0.0000000000000000e+00 0.0000000000000000e+00 0.0000000000000000e+00 0.0000000000000000e+00  7.1056725123780029e-01 2.7001239467638899e-01 0.0000000000000000e+00 2.7001239467638899e-01 -1.2234564603651091e-01 0.0000000000000000e+00 0.0000000000000000e+00 0.0000000000000000e+00 0.0000000000000000e+00  7.7453205580573192e-01 2.7006557532611802e-01 0.0000000000000000e+00 2.7006557532611802e-01 -1.3171843743775394e-01 0.0000000000000000e+00 0.0000000000000000e+00 0.0000000000000000e+00 0.0000000000000000e+00  8.4058151388228253e-01 2.6991516802778176e-01 0.0000000000000000e+00 2.6991516802778176e-01 -1.4101903947967254e-01 0.0000000000000000e+00 0.0000000000000000e+00 0.0000000000000000e+00 0.0000000000000000e+00  9.1190319301532474e-01 2.6992980193986277e-01 0.0000000000000000e+00 2.6992980193986277e-01 -1.5151025086272796e-01 0.0000000000000000e+00 0.0000000000000000e+00 0.0000000000000000e+00 0.0000000000000000e+00  9.9001114332607121e-01 2.6990012752808124e-01 0.0000000000000000e+00 2.6990012752808124e-01 -1.6267262841229424e-01 0.0000000000000000e+00 0.0000000000000000e+00 0.0000000000000000e+00 0.0000000000000000e+00  1.0827096028520133e+00 2.6984577746674193e-01 0.0000000000000000e+00 2.6984577746674193e-01 -1.7547856117861207e-01 0.0000000000000000e+00 0.0000000000000000e+00 0.0000000000000000e+00 0.0000000000000000e+00  1.2190619638192051e+00 2.7321386300966294e-01 0.0000000000000000e+00 2.7321386300966294e-01 -1.8476898346149925e-01 0.0000000000000000e+00 0.0000000000000000e+00 0.0000000000000000e+00 0.0000000000000000e+00  1.2224497594952572e+00 -3.3555623488776283e-02 0.0000000000000000e+00 -3.3555623488776283e-02 -1.8402470237012442e-01 0.0000000000000000e+00 0.0000000000000000e+00 0.0000000000000000e+00 0.0000000000000000e+00  1.0830473666203495e+00 -3.0209300381917433e-02 0.0000000000000000e+00 -3.0209300381917433e-02 -1.7506507554072195e-01 0.0000000000000000e+00 0.0000000000000000e+00 0.0000000000000000e+00 0.0000000000000000e+00  9.8935903046290774e-01 -3.0196298581637800e-02 0.0000000000000000e+00 -3.0196298581637800e-02 -1.6335776377626984e-01 0.0000000000000000e+00 0.0000000000000000e+00 0.0000000000000000e+00 0.0000000000000000e+00  9.1259023245299642e-01 -3.0103472246788235e-02 0.0000000000000000e+00 -3.0103472246788235e-02 -1.5163984295445751e-01 0.0000000000000000e+00 0.0000000000000000e+00 0.0000000000000000e+00 0.0000000000000000e+00  8.4393488234325831e-01 -2.9981504488690639e-02 0.0000000000000000e+00 -2.9981504488690639e-02 -1.4124487005909164e-01 0.0000000000000000e+00 0.0000000000000000e+00 0.0000000000000000e+00 0.0000000000000000e+00  7.7931570043205478e-01 -3.0056074713169144e-02 0.0000000000000000e+00 -3.0056074713169144e-02 -1.3167083482597119e-01 0.0000000000000000e+00 0.0000000000000000e+00 0.0000000000000000e+00 0.0000000000000000e+00  7.1743596883169614e-01 -3.0009232984541671e-02 0.0000000000000000e+00 -3.0009232984541671e-02 -1.2267620532188027e-01 0.0000000000000000e+00 0.0000000000000000e+00 0.0000000000000000e+00 0.0000000000000000e+00  6.5765067572760438e-01 -3.0337755013628100e-02 0.0000000000000000e+00 -3.0337755013628100e-02 -1.1466764805963731e-01 0.0000000000000000e+00 0.0000000000000000e+00 0.0000000000000000e+00 0.0000000000000000e+00  6.0098145528110880e-01 -3.0240743456904102e-02 0.0000000000000000e+00 -3.0240743456904102e-02 -1.0566546347693218e-01 0.0000000000000000e+00 0.0000000000000000e+00 0.0000000000000000e+00 0.0000000000000000e+00  5.4665322766758373e-01 -3.0078713926924825e-02 0.0000000000000000e+00 -3.0078713926924825e-02 -9.6847558601446199e-02 0.0000000000000000e+00 0.0000000000000000e+00 0.0000000000000000e+00 0.0000000000000000e+00  4.9366095408258193e-01 -3.0014766976416755e-02 0.0000000000000000e+00 -3.0014766976416755e-02 -8.8249609946399146e-02 0.0000000000000000e+00 0.0000000000000000e+00 0.0000000000000000e+00 0.0000000000000000e+00  4.4285528896082621e-01 -3.0064787272733942e-02 0.0000000000000000e+00 -3.0064787272733942e-02 -7.9680975141285568e-02 0.0000000000000000e+00 0.0000000000000000e+00 0.0000000000000000e+00 0.0000000000000000e+00  3.9519520406108360e-01 -3.0022081426417335e-02 0.0000000000000000e+00 -3.0022081426417335e-02 -7.0001645929478301e-02 0.0000000000000000e+00 0.0000000000000000e+00 0.0000000000000000e+00 0.0000000000000000e+00  3.5040221658934756e-01 -2.9991194144794297e-02 0.0000000000000000e+00 -2.9991194144794297e-02 -5.9463919322742538e-02 0.0000000000000000e+00 0.0000000000000000e+00 0.0000000000000000e+00 0.0000000000000000e+00  3.1057565078986993e-01 -3.0019122320100348e-02 0.0000000000000000e+00 -3.0019122320100348e-02 -4.7313605695257006e-02 0.0000000000000000e+00 0.0000000000000000e+00 0.0000000000000000e+00 0.0000000000000000e+00  2.8115741998943278e-01 -2.9972869939774563e-02 0.0000000000000000e+00 -2.9972869939774563e-02 -3.5611583573136991e-02 0.0000000000000000e+00 0.0000000000000000e+00 0.0000000000000000e+00 0.0000000000000000e+00  2.6059107328825976e-01 -3.0009744661170214e-02 0.0000000000000000e+00 -3.0009744661170214e-02 -2.5952798579449987e-02 0.0000000000000000e+00 0.0000000000000000e+00 0.0000000000000000e+00 0.0000000000000000e+00  2.4542852911733173e-01 -3.0005798826107103e-02 0.0000000000000000e+00 -3.0005798826107103e-02 -1.8114861291240195e-02 0.0000000000000000e+00 0.0000000000000000e+00 0.0000000000000000e+00 0.0000000000000000e+00  2.3377295767407835e-01 -3.0002941950198713e-02 0.0000000000000000e+00 -3.0002941950198713e-02 -1.2115217251693346e-02 0.0000000000000000e+00 0.0000000000000000e+00 0.0000000000000000e+00 0.0000000000000000e+00  2.2440776860895864e-01 -3.0000986110797184e-02 0.0000000000000000e+00 -3.0000986110797184e-02 -7.7422830765475270e-03 0.0000000000000000e+00 0.0000000000000000e+00 0.0000000000000000e+00 0.0000000000000000e+00  2.1651494359277637e-01 -2.9999909111248967e-02 0.0000000000000000e+00 -2.9999909111248967e-02 -4.7027885434602077e-03 0.0000000000000000e+00 0.0000000000000000e+00 0.0000000000000000e+00 0.0000000000000000e+00  2.0953604103556073e-01 -2.9999751130562465e-02 0.0000000000000000e+00 -2.9999751130562465e-02 -2.6867086956014882e-03 0.0000000000000000e+00 0.0000000000000000e+00 0.0000000000000000e+00 0.0000000000000000e+00  2.0309817043116210e-01 -2.9999725058916807e-02 0.0000000000000000e+00 -2.9999725058916807e-02 -1.4132838783366109e-03 0.0000000000000000e+00 0.0000000000000000e+00 0.0000000000000000e+00 0.0000000000000000e+00  1.9696219523054556e-01 -2.9999689658916227e-02 0.0000000000000000e+00 -2.9999689658916